# vtk DataFile Version 3.0
higtree
ASCII
DATASET UNSTRUCTURED_GRID
POINTS 10240 float
0.000000 0.000000 0
0.062500 0.000000 0
0.062500 0.062500 0
0.000000 0.062500 0
0.000000 0.062500 0
0.062500 0.062500 0
0.062500 0.125000 0
0.000000 0.125000 0
0.000000 0.125000 0
0.062500 0.125000 0
0.062500 0.187500 0
0.000000 0.187500 0
0.000000 0.187500 0
0.062500 0.187500 0
0.062500 0.250000 0
0.000000 0.250000 0
0.000000 0.250000 0
0.062500 0.250000 0
0.062500 0.312500 0
0.000000 0.312500 0
0.000000 0.312500 0
0.062500 0.312500 0
0.062500 0.375000 0
0.000000 0.375000 0
0.000000 0.375000 0
0.062500 0.375000 0
0.062500 0.437500 0
0.000000 0.437500 0
0.000000 0.437500 0
0.062500 0.437500 0
0.062500 0.500000 0
0.000000 0.500000 0
0.000000 0.500000 0
0.062500 0.500000 0
0.062500 0.562500 0
0.000000 0.562500 0
0.000000 0.562500 0
0.062500 0.562500 0
0.062500 0.625000 0
0.000000 0.625000 0
0.000000 0.625000 0
0.062500 0.625000 0
0.062500 0.687500 0
0.000000 0.687500 0
0.000000 0.687500 0
0.062500 0.687500 0
0.062500 0.750000 0
0.000000 0.750000 0
0.000000 0.750000 0
0.062500 0.750000 0
0.062500 0.812500 0
0.000000 0.812500 0
0.000000 0.812500 0
0.062500 0.812500 0
0.062500 0.875000 0
0.000000 0.875000 0
0.000000 0.875000 0
0.062500 0.875000 0
0.062500 0.937500 0
0.000000 0.937500 0
0.000000 0.937500 0
0.062500 0.937500 0
0.062500 1.000000 0
0.000000 1.000000 0
0.062500 0.000000 0
0.125000 0.000000 0
0.125000 0.062500 0
0.062500 0.062500 0
0.062500 0.062500 0
0.125000 0.062500 0
0.125000 0.125000 0
0.062500 0.125000 0
0.062500 0.125000 0
0.125000 0.125000 0
0.125000 0.187500 0
0.062500 0.187500 0
0.062500 0.187500 0
0.125000 0.187500 0
0.125000 0.250000 0
0.062500 0.250000 0
0.062500 0.250000 0
0.125000 0.250000 0
0.125000 0.312500 0
0.062500 0.312500 0
0.062500 0.312500 0
0.125000 0.312500 0
0.125000 0.375000 0
0.062500 0.375000 0
0.062500 0.375000 0
0.125000 0.375000 0
0.125000 0.437500 0
0.062500 0.437500 0
0.062500 0.437500 0
0.125000 0.437500 0
0.125000 0.500000 0
0.062500 0.500000 0
0.062500 0.500000 0
0.125000 0.500000 0
0.125000 0.562500 0
0.062500 0.562500 0
0.062500 0.562500 0
0.125000 0.562500 0
0.125000 0.625000 0
0.062500 0.625000 0
0.062500 0.625000 0
0.125000 0.625000 0
0.125000 0.687500 0
0.062500 0.687500 0
0.062500 0.687500 0
0.125000 0.687500 0
0.125000 0.750000 0
0.062500 0.750000 0
0.062500 0.750000 0
0.125000 0.750000 0
0.125000 0.812500 0
0.062500 0.812500 0
0.062500 0.812500 0
0.125000 0.812500 0
0.125000 0.875000 0
0.062500 0.875000 0
0.062500 0.875000 0
0.125000 0.875000 0
0.125000 0.937500 0
0.062500 0.937500 0
0.062500 0.937500 0
0.125000 0.937500 0
0.125000 1.000000 0
0.062500 1.000000 0
0.125000 0.000000 0
0.187500 0.000000 0
0.187500 0.062500 0
0.125000 0.062500 0
0.125000 0.062500 0
0.187500 0.062500 0
0.187500 0.125000 0
0.125000 0.125000 0
0.125000 0.125000 0
0.187500 0.125000 0
0.187500 0.187500 0
0.125000 0.187500 0
0.125000 0.187500 0
0.187500 0.187500 0
0.187500 0.250000 0
0.125000 0.250000 0
0.125000 0.250000 0
0.187500 0.250000 0
0.187500 0.312500 0
0.125000 0.312500 0
0.125000 0.312500 0
0.187500 0.312500 0
0.187500 0.375000 0
0.125000 0.375000 0
0.125000 0.375000 0
0.187500 0.375000 0
0.187500 0.437500 0
0.125000 0.437500 0
0.125000 0.437500 0
0.187500 0.437500 0
0.187500 0.500000 0
0.125000 0.500000 0
0.125000 0.500000 0
0.187500 0.500000 0
0.187500 0.562500 0
0.125000 0.562500 0
0.125000 0.562500 0
0.187500 0.562500 0
0.187500 0.625000 0
0.125000 0.625000 0
0.125000 0.625000 0
0.187500 0.625000 0
0.187500 0.687500 0
0.125000 0.687500 0
0.125000 0.687500 0
0.187500 0.687500 0
0.187500 0.750000 0
0.125000 0.750000 0
0.125000 0.750000 0
0.187500 0.750000 0
0.187500 0.812500 0
0.125000 0.812500 0
0.125000 0.812500 0
0.187500 0.812500 0
0.187500 0.875000 0
0.125000 0.875000 0
0.125000 0.875000 0
0.187500 0.875000 0
0.187500 0.937500 0
0.125000 0.937500 0
0.125000 0.937500 0
0.187500 0.937500 0
0.187500 1.000000 0
0.125000 1.000000 0
0.187500 0.000000 0
0.250000 0.000000 0
0.250000 0.062500 0
0.187500 0.062500 0
0.187500 0.062500 0
0.250000 0.062500 0
0.250000 0.125000 0
0.187500 0.125000 0
0.187500 0.125000 0
0.250000 0.125000 0
0.250000 0.187500 0
0.187500 0.187500 0
0.187500 0.187500 0
0.250000 0.187500 0
0.250000 0.250000 0
0.187500 0.250000 0
0.187500 0.250000 0
0.250000 0.250000 0
0.250000 0.312500 0
0.187500 0.312500 0
0.187500 0.312500 0
0.250000 0.312500 0
0.250000 0.375000 0
0.187500 0.375000 0
0.187500 0.375000 0
0.250000 0.375000 0
0.250000 0.437500 0
0.187500 0.437500 0
0.187500 0.437500 0
0.250000 0.437500 0
0.250000 0.500000 0
0.187500 0.500000 0
0.187500 0.500000 0
0.250000 0.500000 0
0.250000 0.562500 0
0.187500 0.562500 0
0.187500 0.562500 0
0.250000 0.562500 0
0.250000 0.625000 0
0.187500 0.625000 0
0.187500 0.625000 0
0.250000 0.625000 0
0.250000 0.687500 0
0.187500 0.687500 0
0.187500 0.687500 0
0.250000 0.687500 0
0.250000 0.750000 0
0.187500 0.750000 0
0.187500 0.750000 0
0.250000 0.750000 0
0.250000 0.812500 0
0.187500 0.812500 0
0.187500 0.812500 0
0.250000 0.812500 0
0.250000 0.875000 0
0.187500 0.875000 0
0.187500 0.875000 0
0.250000 0.875000 0
0.250000 0.937500 0
0.187500 0.937500 0
0.187500 0.937500 0
0.250000 0.937500 0
0.250000 1.000000 0
0.187500 1.000000 0
0.250000 0.000000 0
0.312500 0.000000 0
0.312500 0.062500 0
0.250000 0.062500 0
0.250000 0.062500 0
0.312500 0.062500 0
0.312500 0.125000 0
0.250000 0.125000 0
0.250000 0.125000 0
0.312500 0.125000 0
0.312500 0.187500 0
0.250000 0.187500 0
0.250000 0.187500 0
0.312500 0.187500 0
0.312500 0.250000 0
0.250000 0.250000 0
0.250000 0.250000 0
0.312500 0.250000 0
0.312500 0.312500 0
0.250000 0.312500 0
0.250000 0.312500 0
0.312500 0.312500 0
0.312500 0.375000 0
0.250000 0.375000 0
0.250000 0.375000 0
0.312500 0.375000 0
0.312500 0.437500 0
0.250000 0.437500 0
0.250000 0.437500 0
0.312500 0.437500 0
0.312500 0.500000 0
0.250000 0.500000 0
0.250000 0.500000 0
0.312500 0.500000 0
0.312500 0.562500 0
0.250000 0.562500 0
0.250000 0.562500 0
0.312500 0.562500 0
0.312500 0.625000 0
0.250000 0.625000 0
0.250000 0.625000 0
0.312500 0.625000 0
0.312500 0.687500 0
0.250000 0.687500 0
0.250000 0.687500 0
0.312500 0.687500 0
0.312500 0.750000 0
0.250000 0.750000 0
0.250000 0.750000 0
0.312500 0.750000 0
0.312500 0.812500 0
0.250000 0.812500 0
0.250000 0.812500 0
0.312500 0.812500 0
0.312500 0.875000 0
0.250000 0.875000 0
0.250000 0.875000 0
0.312500 0.875000 0
0.312500 0.937500 0
0.250000 0.937500 0
0.250000 0.937500 0
0.312500 0.937500 0
0.312500 1.000000 0
0.250000 1.000000 0
0.312500 0.000000 0
0.375000 0.000000 0
0.375000 0.062500 0
0.312500 0.062500 0
0.312500 0.062500 0
0.375000 0.062500 0
0.375000 0.125000 0
0.312500 0.125000 0
0.312500 0.125000 0
0.375000 0.125000 0
0.375000 0.187500 0
0.312500 0.187500 0
0.312500 0.187500 0
0.375000 0.187500 0
0.375000 0.250000 0
0.312500 0.250000 0
0.312500 0.250000 0
0.375000 0.250000 0
0.375000 0.312500 0
0.312500 0.312500 0
0.312500 0.312500 0
0.375000 0.312500 0
0.375000 0.375000 0
0.312500 0.375000 0
0.312500 0.375000 0
0.375000 0.375000 0
0.375000 0.437500 0
0.312500 0.437500 0
0.312500 0.437500 0
0.375000 0.437500 0
0.375000 0.500000 0
0.312500 0.500000 0
0.312500 0.500000 0
0.375000 0.500000 0
0.375000 0.562500 0
0.312500 0.562500 0
0.312500 0.562500 0
0.375000 0.562500 0
0.375000 0.625000 0
0.312500 0.625000 0
0.312500 0.625000 0
0.375000 0.625000 0
0.375000 0.687500 0
0.312500 0.687500 0
0.312500 0.687500 0
0.375000 0.687500 0
0.375000 0.750000 0
0.312500 0.750000 0
0.312500 0.750000 0
0.375000 0.750000 0
0.375000 0.812500 0
0.312500 0.812500 0
0.312500 0.812500 0
0.375000 0.812500 0
0.375000 0.875000 0
0.312500 0.875000 0
0.312500 0.875000 0
0.375000 0.875000 0
0.375000 0.937500 0
0.312500 0.937500 0
0.312500 0.937500 0
0.375000 0.937500 0
0.375000 1.000000 0
0.312500 1.000000 0
0.375000 0.000000 0
0.437500 0.000000 0
0.437500 0.062500 0
0.375000 0.062500 0
0.375000 0.062500 0
0.437500 0.062500 0
0.437500 0.125000 0
0.375000 0.125000 0
0.375000 0.125000 0
0.437500 0.125000 0
0.437500 0.187500 0
0.375000 0.187500 0
0.375000 0.187500 0
0.437500 0.187500 0
0.437500 0.250000 0
0.375000 0.250000 0
0.375000 0.250000 0
0.437500 0.250000 0
0.437500 0.312500 0
0.375000 0.312500 0
0.375000 0.312500 0
0.437500 0.312500 0
0.437500 0.375000 0
0.375000 0.375000 0
0.375000 0.375000 0
0.437500 0.375000 0
0.437500 0.437500 0
0.375000 0.437500 0
0.375000 0.437500 0
0.437500 0.437500 0
0.437500 0.500000 0
0.375000 0.500000 0
0.375000 0.500000 0
0.437500 0.500000 0
0.437500 0.562500 0
0.375000 0.562500 0
0.375000 0.562500 0
0.437500 0.562500 0
0.437500 0.625000 0
0.375000 0.625000 0
0.375000 0.625000 0
0.437500 0.625000 0
0.437500 0.687500 0
0.375000 0.687500 0
0.375000 0.687500 0
0.437500 0.687500 0
0.437500 0.750000 0
0.375000 0.750000 0
0.375000 0.750000 0
0.437500 0.750000 0
0.437500 0.812500 0
0.375000 0.812500 0
0.375000 0.812500 0
0.437500 0.812500 0
0.437500 0.875000 0
0.375000 0.875000 0
0.375000 0.875000 0
0.437500 0.875000 0
0.437500 0.937500 0
0.375000 0.937500 0
0.375000 0.937500 0
0.437500 0.937500 0
0.437500 1.000000 0
0.375000 1.000000 0
0.437500 0.000000 0
0.500000 0.000000 0
0.500000 0.062500 0
0.437500 0.062500 0
0.437500 0.062500 0
0.500000 0.062500 0
0.500000 0.125000 0
0.437500 0.125000 0
0.437500 0.125000 0
0.500000 0.125000 0
0.500000 0.187500 0
0.437500 0.187500 0
0.437500 0.187500 0
0.500000 0.187500 0
0.500000 0.250000 0
0.437500 0.250000 0
0.437500 0.250000 0
0.500000 0.250000 0
0.500000 0.312500 0
0.437500 0.312500 0
0.437500 0.312500 0
0.500000 0.312500 0
0.500000 0.375000 0
0.437500 0.375000 0
0.437500 0.375000 0
0.500000 0.375000 0
0.500000 0.437500 0
0.437500 0.437500 0
0.437500 0.437500 0
0.500000 0.437500 0
0.500000 0.500000 0
0.437500 0.500000 0
0.437500 0.500000 0
0.500000 0.500000 0
0.500000 0.562500 0
0.437500 0.562500 0
0.437500 0.562500 0
0.500000 0.562500 0
0.500000 0.625000 0
0.437500 0.625000 0
0.437500 0.625000 0
0.500000 0.625000 0
0.500000 0.687500 0
0.437500 0.687500 0
0.437500 0.687500 0
0.500000 0.687500 0
0.500000 0.750000 0
[...]
POINT_DATA 10240
VECTORS vel FLOAT
-2.013670e-02 2.054877e-02 0.000000e+00
9.748449e-04 -1.619446e-03 0.000000e+00
2.798438e-01 -5.359451e-02 0.000000e+00
2.365645e-01 -2.223741e-03 0.000000e+00
2.365645e-01 -2.223741e-03 0.000000e+00
2.798438e-01 -5.359451e-02 0.000000e+00
4.816294e-01 -1.046793e-01 0.000000e+00
4.407834e-01 -1.240930e-02 0.000000e+00
4.407834e-01 -1.240930e-02 0.000000e+00
4.816294e-01 -1.046793e-01 0.000000e+00
6.263332e-01 -1.365787e-01 0.000000e+00
6.112463e-01 -1.694283e-02 0.000000e+00
6.112463e-01 -1.694283e-02 0.000000e+00
6.263332e-01 -1.365787e-01 0.000000e+00
7.403936e-01 -1.409757e-01 0.000000e+00
7.495855e-01 -1.632518e-02 0.000000e+00
7.495855e-01 -1.632518e-02 0.000000e+00
7.403936e-01 -1.409757e-01 0.000000e+00
8.332965e-01 -1.219370e-01 0.000000e+00
8.572994e-01 -1.224772e-02 0.000000e+00
8.572994e-01 -1.224772e-02 0.000000e+00
8.332965e-01 -1.219370e-01 0.000000e+00
9.040701e-01 -8.816541e-02 0.000000e+00
9.351112e-01 -7.874854e-03 0.000000e+00
9.351112e-01 -7.874854e-03 0.000000e+00
9.040701e-01 -8.816541e-02 0.000000e+00
9.478850e-01 -4.596951e-02 0.000000e+00
9.825777e-01 -3.786987e-03 0.000000e+00
9.825777e-01 -3.786987e-03 0.000000e+00
9.478850e-01 -4.596951e-02 0.000000e+00
9.626209e-01 1.947962e-05 0.000000e+00
9.984923e-01 8.281127e-06 0.000000e+00
9.984923e-01 8.281127e-06 0.000000e+00
9.626209e-01 1.947962e-05 0.000000e+00
9.478451e-01 4.600248e-02 0.000000e+00
9.825734e-01 3.802670e-03 0.000000e+00
9.825734e-01 3.802670e-03 0.000000e+00
9.478451e-01 4.600248e-02 0.000000e+00
9.039843e-01 8.816476e-02 0.000000e+00
9.350981e-01 7.883325e-03 0.000000e+00
9.350981e-01 7.883325e-03 0.000000e+00
9.039843e-01 8.816476e-02 0.000000e+00
8.331877e-01 1.218955e-01 0.000000e+00
8.573030e-01 1.225383e-02 0.000000e+00
8.573030e-01 1.225383e-02 0.000000e+00
8.331877e-01 1.218955e-01 0.000000e+00
7.404203e-01 1.409135e-01 0.000000e+00
7.496543e-01 1.631035e-02 0.000000e+00
7.496543e-01 1.631035e-02 0.000000e+00
7.404203e-01 1.409135e-01 0.000000e+00
6.262939e-01 1.365571e-01 0.000000e+00
6.112414e-01 1.692963e-02 0.000000e+00
6.112414e-01 1.692963e-02 0.000000e+00
6.262939e-01 1.365571e-01 0.000000e+00
4.815581e-01 1.047174e-01 0.000000e+00
4.407754e-01 1.240286e-02 0.000000e+00
4.407754e-01 1.240286e-02 0.000000e+00
4.815581e-01 1.047174e-01 0.000000e+00
2.798235e-01 5.365392e-02 0.000000e+00
2.365601e-01 2.242601e-03 0.000000e+00
2.365601e-01 2.242601e-03 0.000000e+00
2.798235e-01 5.365392e-02 0.000000e+00
1.008287e-03 1.624238e-03 0.000000e+00
-2.013079e-02 -2.055394e-02 0.000000e+00
9.748449e-04 -1.619446e-03 0.000000e+00
1.413702e-02 -3.088834e-03 0.000000e+00
3.375219e-01 -6.547586e-02 0.000000e+00
2.798438e-01 -5.359451e-02 0.000000e+00
2.798438e-01 -5.359451e-02 0.000000e+00
3.375219e-01 -6.547586e-02 0.000000e+00
5.302631e-01 -1.226559e-01 0.000000e+00
4.816294e-01 -1.046793e-01 0.000000e+00
4.816294e-01 -1.046793e-01 0.000000e+00
5.302631e-01 -1.226559e-01 0.000000e+00
6.470986e-01 -1.582858e-01 0.000000e+00
6.263332e-01 -1.365787e-01 0.000000e+00
6.263332e-01 -1.365787e-01 0.000000e+00
6.470986e-01 -1.582858e-01 0.000000e+00
7.321773e-01 -1.654078e-01 0.000000e+00
7.403936e-01 -1.409757e-01 0.000000e+00
7.403936e-01 -1.409757e-01 0.000000e+00
7.321773e-01 -1.654078e-01 0.000000e+00
8.031101e-01 -1.455241e-01 0.000000e+00
8.332965e-01 -1.219370e-01 0.000000e+00
8.332965e-01 -1.219370e-01 0.000000e+00
8.031101e-01 -1.455241e-01 0.000000e+00
8.596760e-01 -1.069283e-01 0.000000e+00
9.040701e-01 -8.816541e-02 0.000000e+00
9.040701e-01 -8.816541e-02 0.000000e+00
8.596760e-01 -1.069283e-01 0.000000e+00
8.954767e-01 -5.600669e-02 0.000000e+00
9.478850e-01 -4.596951e-02 0.000000e+00
9.478850e-01 -4.596951e-02 0.000000e+00
8.954767e-01 -5.600669e-02 0.000000e+00
9.076723e-01 8.235426e-04 0.000000e+00
9.626209e-01 1.947962e-05 0.000000e+00
9.626209e-01 1.947962e-05 0.000000e+00
9.076723e-01 8.235426e-04 0.000000e+00
8.955441e-01 5.757767e-02 0.000000e+00
9.478451e-01 4.600248e-02 0.000000e+00
9.478451e-01 4.600248e-02 0.000000e+00
8.955441e-01 5.757767e-02 0.000000e+00
8.598145e-01 1.082497e-01 0.000000e+00
9.039843e-01 8.816476e-02 0.000000e+00
9.039843e-01 8.816476e-02 0.000000e+00
8.598145e-01 1.082497e-01 0.000000e+00
8.032824e-01 1.463833e-01 0.000000e+00
8.331877e-01 1.218955e-01 0.000000e+00
8.331877e-01 1.218955e-01 0.000000e+00
8.032824e-01 1.463833e-01 0.000000e+00
7.319572e-01 1.654190e-01 0.000000e+00
7.404203e-01 1.409135e-01 0.000000e+00
7.404203e-01 1.409135e-01 0.000000e+00
7.319572e-01 1.654190e-01 0.000000e+00
6.469880e-01 1.583337e-01 0.000000e+00
6.262939e-01 1.365571e-01 0.000000e+00
6.262939e-01 1.365571e-01 0.000000e+00
6.469880e-01 1.583337e-01 0.000000e+00
5.301558e-01 1.227230e-01 0.000000e+00
4.815581e-01 1.047174e-01 0.000000e+00
4.815581e-01 1.047174e-01 0.000000e+00
5.301558e-01 1.227230e-01 0.000000e+00
3.375327e-01 6.549502e-02 0.000000e+00
2.798235e-01 5.365392e-02 0.000000e+00
2.798235e-01 5.365392e-02 0.000000e+00
3.375327e-01 6.549502e-02 0.000000e+00
1.418253e-02 3.089764e-03 0.000000e+00
1.008287e-03 1.624238e-03 0.000000e+00
1.413702e-02 -3.088834e-03 0.000000e+00
2.311461e-02 -2.343955e-03 0.000000e+00
3.911275e-01 -4.938711e-02 0.000000e+00
3.375219e-01 -6.547586e-02 0.000000e+00
3.375219e-01 -6.547586e-02 0.000000e+00
3.911275e-01 -4.938711e-02 0.000000e+00
5.763749e-01 -9.528933e-02 0.000000e+00
5.302631e-01 -1.226559e-01 0.000000e+00
5.302631e-01 -1.226559e-01 0.000000e+00
5.763749e-01 -9.528933e-02 0.000000e+00
6.684300e-01 -1.268104e-01 0.000000e+00
6.470986e-01 -1.582858e-01 0.000000e+00
6.470986e-01 -1.582858e-01 0.000000e+00
6.684300e-01 -1.268104e-01 0.000000e+00
7.261258e-01 -1.354778e-01 0.000000e+00
7.321773e-01 -1.654078e-01 0.000000e+00
7.321773e-01 -1.654078e-01 0.000000e+00
7.261258e-01 -1.354778e-01 0.000000e+00
7.765590e-01 -1.219352e-01 0.000000e+00
8.031101e-01 -1.455241e-01 0.000000e+00
8.031101e-01 -1.455241e-01 0.000000e+00
7.765590e-01 -1.219352e-01 0.000000e+00
8.178798e-01 -9.104048e-02 0.000000e+00
8.596760e-01 -1.069283e-01 0.000000e+00
8.596760e-01 -1.069283e-01 0.000000e+00
8.178798e-01 -9.104048e-02 0.000000e+00
8.447423e-01 -4.845777e-02 0.000000e+00
8.954767e-01 -5.600669e-02 0.000000e+00
8.954767e-01 -5.600669e-02 0.000000e+00
8.447423e-01 -4.845777e-02 0.000000e+00
8.539607e-01 -1.116569e-05 0.000000e+00
9.076723e-01 8.235426e-04 0.000000e+00
9.076723e-01 8.235426e-04 0.000000e+00
8.539607e-01 -1.116569e-05 0.000000e+00
8.447416e-01 4.843260e-02 0.000000e+00
8.955441e-01 5.757767e-02 0.000000e+00
8.955441e-01 5.757767e-02 0.000000e+00
8.447416e-01 4.843260e-02 0.000000e+00
8.179035e-01 9.102698e-02 0.000000e+00
8.598145e-01 1.082497e-01 0.000000e+00
8.598145e-01 1.082497e-01 0.000000e+00
8.179035e-01 9.102698e-02 0.000000e+00
7.765954e-01 1.219515e-01 0.000000e+00
8.032824e-01 1.463833e-01 0.000000e+00
8.032824e-01 1.463833e-01 0.000000e+00
7.765954e-01 1.219515e-01 0.000000e+00
7.261449e-01 1.355599e-01 0.000000e+00
7.319572e-01 1.654190e-01 0.000000e+00
7.319572e-01 1.654190e-01 0.000000e+00
7.261449e-01 1.355599e-01 0.000000e+00
6.683262e-01 1.268918e-01 0.000000e+00
6.469880e-01 1.583337e-01 0.000000e+00
6.469880e-01 1.583337e-01 0.000000e+00
6.683262e-01 1.268918e-01 0.000000e+00
5.763203e-01 9.532213e-02 0.000000e+00
5.301558e-01 1.227230e-01 0.000000e+00
5.301558e-01 1.227230e-01 0.000000e+00
5.763203e-01 9.532213e-02 0.000000e+00
3.911687e-01 4.936538e-02 0.000000e+00
3.375327e-01 6.549502e-02 0.000000e+00
3.375327e-01 6.549502e-02 0.000000e+00
3.911687e-01 4.936538e-02 0.000000e+00
2.315088e-02 2.341593e-03 0.000000e+00
1.418253e-02 3.089764e-03 0.000000e+00
2.311461e-02 -2.343955e-03 0.000000e+00
2.742274e-02 -4.072099e-04 0.000000e+00
4.289832e-01 -2.895147e-02 0.000000e+00
3.911275e-01 -4.938711e-02 0.000000e+00
3.911275e-01 -4.938711e-02 0.000000e+00
4.289832e-01 -2.895147e-02 0.000000e+00
6.115524e-01 -6.016669e-02 0.000000e+00
5.763749e-01 -9.528933e-02 0.000000e+00
5.763749e-01 -9.528933e-02 0.000000e+00
6.115524e-01 -6.016669e-02 0.000000e+00
6.878932e-01 -8.299812e-02 0.000000e+00
6.684300e-01 -1.268104e-01 0.000000e+00
6.684300e-01 -1.268104e-01 0.000000e+00
6.878932e-01 -8.299812e-02 0.000000e+00
7.252055e-01 -9.181965e-02 0.000000e+00
7.261258e-01 -1.354778e-01 0.000000e+00
7.261258e-01 -1.354778e-01 0.000000e+00
7.252055e-01 -9.181965e-02 0.000000e+00
7.580706e-01 -8.449257e-02 0.000000e+00
7.765590e-01 -1.219352e-01 0.000000e+00
7.765590e-01 -1.219352e-01 0.000000e+00
7.580706e-01 -8.449257e-02 0.000000e+00
7.863890e-01 -6.400915e-02 0.000000e+00
8.178798e-01 -9.104048e-02 0.000000e+00
8.178798e-01 -9.104048e-02 0.000000e+00
7.863890e-01 -6.400915e-02 0.000000e+00
8.053622e-01 -3.436837e-02 0.000000e+00
8.447423e-01 -4.845777e-02 0.000000e+00
8.447423e-01 -4.845777e-02 0.000000e+00
8.053622e-01 -3.436837e-02 0.000000e+00
8.119904e-01 -4.629342e-05 0.000000e+00
8.539607e-01 -1.116569e-05 0.000000e+00
8.539607e-01 -1.116569e-05 0.000000e+00
8.119904e-01 -4.629342e-05 0.000000e+00
8.055176e-01 3.427406e-02 0.000000e+00
8.447416e-01 4.843260e-02 0.000000e+00
8.447416e-01 4.843260e-02 0.000000e+00
8.055176e-01 3.427406e-02 0.000000e+00
7.866709e-01 6.392637e-02 0.000000e+00
8.179035e-01 9.102698e-02 0.000000e+00
8.179035e-01 9.102698e-02 0.000000e+00
7.866709e-01 6.392637e-02 0.000000e+00
7.583723e-01 8.442925e-02 0.000000e+00
7.765954e-01 1.219515e-01 0.000000e+00
7.765954e-01 1.219515e-01 0.000000e+00
7.583723e-01 8.442925e-02 0.000000e+00
7.255917e-01 9.178571e-02 0.000000e+00
7.261449e-01 1.355599e-01 0.000000e+00
7.261449e-01 1.355599e-01 0.000000e+00
7.255917e-01 9.178571e-02 0.000000e+00
6.878262e-01 8.303501e-02 0.000000e+00
6.683262e-01 1.268918e-01 0.000000e+00
6.683262e-01 1.268918e-01 0.000000e+00
6.878262e-01 8.303501e-02 0.000000e+00
6.115485e-01 5.999580e-02 0.000000e+00
5.763203e-01 9.532213e-02 0.000000e+00
5.763203e-01 9.532213e-02 0.000000e+00
6.115485e-01 5.999580e-02 0.000000e+00
4.290414e-01 2.891863e-02 0.000000e+00
3.911687e-01 4.936538e-02 0.000000e+00
3.911687e-01 4.936538e-02 0.000000e+00
4.290414e-01 2.891863e-02 0.000000e+00
2.744405e-02 4.043656e-04 0.000000e+00
2.315088e-02 2.341593e-03 0.000000e+00
2.742274e-02 -4.072099e-04 0.000000e+00
2.836495e-02 1.313230e-03 0.000000e+00
4.522621e-01 -1.421055e-02 0.000000e+00
4.289832e-01 -2.895147e-02 0.000000e+00
4.289832e-01 -2.895147e-02 0.000000e+00
4.522621e-01 -1.421055e-02 0.000000e+00
6.362699e-01 -3.493834e-02 0.000000e+00
6.115524e-01 -6.016669e-02 0.000000e+00
6.115524e-01 -6.016669e-02 0.000000e+00
6.362699e-01 -3.493834e-02 0.000000e+00
7.028991e-01 -5.124059e-02 0.000000e+00
6.878932e-01 -8.299812e-02 0.000000e+00
6.878932e-01 -8.299812e-02 0.000000e+00
7.028991e-01 -5.124059e-02 0.000000e+00
7.268052e-01 -5.858592e-02 0.000000e+00
7.252055e-01 -9.181965e-02 0.000000e+00
7.252055e-01 -9.181965e-02 0.000000e+00
7.268052e-01 -5.858592e-02 0.000000e+00
7.472654e-01 -5.499090e-02 0.000000e+00
7.580706e-01 -8.449257e-02 0.000000e+00
7.580706e-01 -8.449257e-02 0.000000e+00
7.472654e-01 -5.499090e-02 0.000000e+00
7.661104e-01 -4.219923e-02 0.000000e+00
7.863890e-01 -6.400915e-02 0.000000e+00
7.863890e-01 -6.400915e-02 0.000000e+00
7.661104e-01 -4.219923e-02 0.000000e+00
7.791753e-01 -2.284980e-02 0.000000e+00
8.053622e-01 -3.436837e-02 0.000000e+00
8.053622e-01 -3.436837e-02 0.000000e+00
7.791753e-01 -2.284980e-02 0.000000e+00
7.837898e-01 -9.318492e-05 0.000000e+00
8.119904e-01 -4.629342e-05 0.000000e+00
8.119904e-01 -4.629342e-05 0.000000e+00
7.837898e-01 -9.318492e-05 0.000000e+00
7.792981e-01 2.267374e-02 0.000000e+00
8.055176e-01 3.427406e-02 0.000000e+00
8.055176e-01 3.427406e-02 0.000000e+00
7.792981e-01 2.267374e-02 0.000000e+00
7.663269e-01 4.206136e-02 0.000000e+00
7.866709e-01 6.392637e-02 0.000000e+00
7.866709e-01 6.392637e-02 0.000000e+00
7.663269e-01 4.206136e-02 0.000000e+00
7.474768e-01 5.490460e-02 0.000000e+00
7.583723e-01 8.442925e-02 0.000000e+00
7.583723e-01 8.442925e-02 0.000000e+00
7.474768e-01 5.490460e-02 0.000000e+00
7.270799e-01 5.854729e-02 0.000000e+00
7.255917e-01 9.178571e-02 0.000000e+00
7.255917e-01 9.178571e-02 0.000000e+00
7.270799e-01 5.854729e-02 0.000000e+00
7.028600e-01 5.124031e-02 0.000000e+00
6.878262e-01 8.303501e-02 0.000000e+00
6.878262e-01 8.303501e-02 0.000000e+00
7.028600e-01 5.124031e-02 0.000000e+00
6.362936e-01 3.491837e-02 0.000000e+00
6.115485e-01 5.999580e-02 0.000000e+00
6.115485e-01 5.999580e-02 0.000000e+00
6.362936e-01 3.491837e-02 0.000000e+00
4.523239e-01 1.418177e-02 0.000000e+00
4.290414e-01 2.891863e-02 0.000000e+00
4.290414e-01 2.891863e-02 0.000000e+00
4.523239e-01 1.418177e-02 0.000000e+00
2.837535e-02 -1.315978e-03 0.000000e+00
2.744405e-02 4.043656e-04 0.000000e+00
2.836495e-02 1.313230e-03 0.000000e+00
2.798065e-02 1.953501e-03 0.000000e+00
4.663977e-01 -7.243833e-03 0.000000e+00
4.522621e-01 -1.421055e-02 0.000000e+00
4.522621e-01 -1.421055e-02 0.000000e+00
4.663977e-01 -7.243833e-03 0.000000e+00
6.529936e-01 -2.079523e-02 0.000000e+00
6.362699e-01 -3.493834e-02 0.000000e+00
6.362699e-01 -3.493834e-02 0.000000e+00
6.529936e-01 -2.079523e-02 0.000000e+00
7.137255e-01 -3.179304e-02 0.000000e+00
7.028991e-01 -5.124059e-02 0.000000e+00
7.028991e-01 -5.124059e-02 0.000000e+00
7.137255e-01 -3.179304e-02 0.000000e+00
7.288581e-01 -3.730677e-02 0.000000e+00
7.268052e-01 -5.858592e-02 0.000000e+00
7.268052e-01 -5.858592e-02 0.000000e+00
7.288581e-01 -3.730677e-02 0.000000e+00
7.408397e-01 -3.558957e-02 0.000000e+00
7.472654e-01 -5.499090e-02 0.000000e+00
7.472654e-01 -5.499090e-02 0.000000e+00
7.408397e-01 -3.558957e-02 0.000000e+00
7.530468e-01 -2.759965e-02 0.000000e+00
7.661104e-01 -4.219923e-02 0.000000e+00
7.661104e-01 -4.219923e-02 0.000000e+00
7.530468e-01 -2.759965e-02 0.000000e+00
7.618946e-01 -1.504134e-02 0.000000e+00
7.791753e-01 -2.284980e-02 0.000000e+00
7.791753e-01 -2.284980e-02 0.000000e+00
7.618946e-01 -1.504134e-02 0.000000e+00
7.650542e-01 -7.826041e-05 0.000000e+00
7.837898e-01 -9.318492e-05 0.000000e+00
7.837898e-01 -9.318492e-05 0.000000e+00
7.650542e-01 -7.826041e-05 0.000000e+00
7.619822e-01 1.489587e-02 0.000000e+00
7.792981e-01 2.267374e-02 0.000000e+00
7.792981e-01 2.267374e-02 0.000000e+00
7.619822e-01 1.489587e-02 0.000000e+00
7.531977e-01 2.748852e-02 0.000000e+00
7.663269e-01 4.206136e-02 0.000000e+00
7.663269e-01 4.206136e-02 0.000000e+00
7.531977e-01 2.748852e-02 0.000000e+00
7.409705e-01 3.552381e-02 0.000000e+00
7.474768e-01 5.490460e-02 0.000000e+00
7.474768e-01 5.490460e-02 0.000000e+00
7.409705e-01 3.552381e-02 0.000000e+00
7.290372e-01 3.728038e-02 0.000000e+00
7.270799e-01 5.854729e-02 0.000000e+00
7.270799e-01 5.854729e-02 0.000000e+00
7.290372e-01 3.728038e-02 0.000000e+00
7.137048e-01 3.177554e-02 0.000000e+00
7.028600e-01 5.124031e-02 0.000000e+00
7.028600e-01 5.124031e-02 0.000000e+00
7.137048e-01 3.177554e-02 0.000000e+00
6.530252e-01 2.076860e-02 0.000000e+00
6.362936e-01 3.491837e-02 0.000000e+00
6.362936e-01 3.491837e-02 0.000000e+00
6.530252e-01 2.076860e-02 0.000000e+00
4.664503e-01 7.226358e-03 0.000000e+00
4.523239e-01 1.418177e-02 0.000000e+00
4.523239e-01 1.418177e-02 0.000000e+00
4.664503e-01 7.226358e-03 0.000000e+00
2.798373e-02 -1.955805e-03 0.000000e+00
2.837535e-02 -1.315978e-03 0.000000e+00
2.798065e-02 1.953501e-03 0.000000e+00
2.734461e-02 1.447740e-03 0.000000e+00
4.750647e-01 -4.071867e-03 0.000000e+00
4.663977e-01 -7.243833e-03 0.000000e+00
4.663977e-01 -7.243833e-03 0.000000e+00
4.750647e-01 -4.071867e-03 0.000000e+00
6.639585e-01 -1.272133e-02 0.000000e+00
6.529936e-01 -2.079523e-02 0.000000e+00
6.529936e-01 -2.079523e-02 0.000000e+00
6.639585e-01 -1.272133e-02 0.000000e+00
7.211997e-01 -2.006120e-02 0.000000e+00
7.137255e-01 -3.179304e-02 0.000000e+00
7.137255e-01 -3.179304e-02 0.000000e+00
7.211997e-01 -2.006120e-02 0.000000e+00
7.306683e-01 -2.396708e-02 0.000000e+00
7.288581e-01 -3.730677e-02 0.000000e+00
7.288581e-01 -3.730677e-02 0.000000e+00
7.306683e-01 -2.396708e-02 0.000000e+00
7.369586e-01 -2.314098e-02 0.000000e+00
7.408397e-01 -3.558957e-02 0.000000e+00
7.408397e-01 -3.558957e-02 0.000000e+00
7.369586e-01 -2.314098e-02 0.000000e+00
7.446076e-01 -1.809096e-02 0.000000e+00
7.530468e-01 -2.759965e-02 0.000000e+00
7.530468e-01 -2.759965e-02 0.000000e+00
7.446076e-01 -1.809096e-02 0.000000e+00
7.505125e-01 -9.907382e-03 0.000000e+00
7.618946e-01 -1.504134e-02 0.000000e+00
7.618946e-01 -1.504134e-02 0.000000e+00
7.505125e-01 -9.907382e-03 0.000000e+00
7.526473e-01 -5.548888e-05 0.000000e+00
7.650542e-01 -7.826041e-05 0.000000e+00
7.650542e-01 -7.826041e-05 0.000000e+00
7.526473e-01 -5.548888e-05 0.000000e+00
7.505726e-01 9.804866e-03 0.000000e+00
7.619822e-01 1.489587e-02 0.000000e+00
7.619822e-01 1.489587e-02 0.000000e+00
7.505726e-01 9.804866e-03 0.000000e+00
7.447084e-01 1.801348e-02 0.000000e+00
7.531977e-01 2.748852e-02 0.000000e+00
7.531977e-01 2.748852e-02 0.000000e+00
7.447084e-01 1.801348e-02 0.000000e+00
7.370291e-01 2.309669e-02 0.000000e+00
7.409705e-01 3.552381e-02 0.000000e+00
7.409705e-01 3.552381e-02 0.000000e+00
7.370291e-01 2.309669e-02 0.000000e+00
7.307785e-01 2.395262e-02 0.000000e+00
7.290372e-01 3.728038e-02 0.000000e+00
7.290372e-01 3.728038e-02 0.000000e+00
7.307785e-01 2.395262e-02 0.000000e+00
7.211902e-01 2.004091e-02 0.000000e+00
7.137048e-01 3.177554e-02 0.000000e+00
7.137048e-01 3.177554e-02 0.000000e+00
7.211902e-01 2.004091e-02 0.000000e+00
6.639869e-01 1.269828e-02 0.000000e+00
6.530252e-01 2.076860e-02 0.000000e+00
6.530252e-01 2.076860e-02 0.000000e+00
6.639869e-01 1.269828e-02 0.000000e+00
4.751047e-01 4.062421e-03 0.000000e+00
4.664503e-01 7.226358e-03 0.000000e+00
4.664503e-01 7.226358e-03 0.000000e+00
4.751047e-01 4.062421e-03 0.000000e+00
2.734470e-02 -1.448157e-03 0.000000e+00
2.798373e-02 -1.955805e-03 0.000000e+00
2.734461e-02 1.447740e-03 0.000000e+00
2.680179e-02 8.926216e-04 0.000000e+00
4.804693e-01 -2.362337e-03 0.000000e+00
4.750647e-01 -4.071867e-03 0.000000e+00
4.750647e-01 -4.071867e-03 0.000000e+00
4.804693e-01 -2.362337e-03 0.000000e+00
6.711036e-01 -7.859866e-03 0.000000e+00
6.639585e-01 -1.272133e-02 0.000000e+00
6.639585e-01 -1.272133e-02 0.000000e+00
6.711036e-01 -7.859866e-03 0.000000e+00
7.262427e-01 -1.272657e-02 0.000000e+00
7.211997e-01 -2.006120e-02 0.000000e+00
7.211997e-01 -2.006120e-02 0.000000e+00
7.262427e-01 -1.272657e-02 0.000000e+00
7.320757e-01 -1.541631e-02 0.000000e+00
7.306683e-01 -2.396708e-02 0.000000e+00
7.306683e-01 -2.396708e-02 0.000000e+00
7.320757e-01 -1.541631e-02 0.000000e+00
7.345965e-01 -1.503217e-02 0.000000e+00
7.369586e-01 -2.314098e-02 0.000000e+00
7.369586e-01 -2.314098e-02 0.000000e+00
7.345965e-01 -1.503217e-02 0.000000e+00
7.391575e-01 -1.182945e-02 0.000000e+00
7.446076e-01 -1.809096e-02 0.000000e+00
7.446076e-01 -1.809096e-02 0.000000e+00
7.391575e-01 -1.182945e-02 0.000000e+00
7.430419e-01 -6.503893e-03 0.000000e+00
7.505125e-01 -9.907382e-03 0.000000e+00
7.505125e-01 -9.907382e-03 0.000000e+00
7.430419e-01 -6.503893e-03 0.000000e+00
7.444682e-01 -3.802408e-05 0.000000e+00
7.526473e-01 -5.548888e-05 0.000000e+00
7.526473e-01 -5.548888e-05 0.000000e+00
7.444682e-01 -3.802408e-05 0.000000e+00
7.430824e-01 6.433743e-03 0.000000e+00
7.505726e-01 9.804866e-03 0.000000e+00
7.505726e-01 9.804866e-03 0.000000e+00
7.430824e-01 6.433743e-03 0.000000e+00
7.392231e-01 1.177646e-02 0.000000e+00
7.447084e-01 1.801348e-02 0.000000e+00
7.447084e-01 1.801348e-02 0.000000e+00
7.392231e-01 1.177646e-02 0.000000e+00
7.346244e-01 1.500227e-02 0.000000e+00
7.370291e-01 2.309669e-02 0.000000e+00
7.370291e-01 2.309669e-02 0.000000e+00
7.346244e-01 1.500227e-02 0.000000e+00
7.321385e-01 1.540801e-02 0.000000e+00
7.307785e-01 2.395262e-02 0.000000e+00
7.307785e-01 2.395262e-02 0.000000e+00
7.321385e-01 1.540801e-02 0.000000e+00
7.262392e-01 1.270956e-02 0.000000e+00
7.211902e-01 2.004091e-02 0.000000e+00
7.211902e-01 2.004091e-02 0.000000e+00
7.262392e-01 1.270956e-02 0.000000e+00
6.711259e-01 7.842668e-03 0.000000e+00
6.639869e-01 1.269828e-02 0.000000e+00
6.639869e-01 1.269828e-02 0.000000e+00