# vtk DataFile Version 3.0
higtree
ASCII
DATASET UNSTRUCTURED_GRID
POINTS 10240 float
0.000000 0.000000 0
0.062500 0.000000 0
0.062500 0.062500 0
0.000000 0.062500 0
0.000000 0.062500 0
0.062500 0.062500 0
0.062500 0.125000 0
0.000000 0.125000 0
0.000000 0.125000 0
0.062500 0.125000 0
0.062500 0.187500 0
0.000000 0.187500 0
0.000000 0.187500 0
0.062500 0.187500 0
0.062500 0.250000 0
0.000000 0.250000 0
0.000000 0.250000 0
0.062500 0.250000 0
0.062500 0.312500 0
0.000000 0.312500 0
0.000000 0.312500 0
0.062500 0.312500 0
0.062500 0.375000 0
0.000000 0.375000 0
0.000000 0.375000 0
0.062500 0.375000 0
0.062500 0.437500 0
0.000000 0.437500 0
0.000000 0.437500 0
0.062500 0.437500 0
0.062500 0.500000 0
0.000000 0.500000 0
0.000000 0.500000 0
0.062500 0.500000 0
0.062500 0.562500 0
0.000000 0.562500 0
0.000000 0.562500 0
0.062500 0.562500 0
0.062500 0.625000 0
0.000000 0.625000 0
0.000000 0.625000 0
0.062500 0.625000 0
0.062500 0.687500 0
0.000000 0.687500 0
0.000000 0.687500 0
0.062500 0.687500 0
0.062500 0.750000 0
0.000000 0.750000 0
0.000000 0.750000 0
0.062500 0.750000 0
0.062500 0.812500 0
0.000000 0.812500 0
0.000000 0.812500 0
0.062500 0.812500 0
0.062500 0.875000 0
0.000000 0.875000 0
0.000000 0.875000 0
0.062500 0.875000 0
0.062500 0.937500 0
0.000000 0.937500 0
0.000000 0.937500 0
0.062500 0.937500 0
0.062500 1.000000 0
0.000000 1.000000 0
0.062500 0.000000 0
0.125000 0.000000 0
0.125000 0.062500 0
0.062500 0.062500 0
0.062500 0.062500 0
0.125000 0.062500 0
0.125000 0.125000 0
0.062500 0.125000 0
0.062500 0.125000 0
0.125000 0.125000 0
0.125000 0.187500 0
0.062500 0.187500 0
0.062500 0.187500 0
0.125000 0.187500 0
0.125000 0.250000 0
0.062500 0.250000 0
0.062500 0.250000 0
0.125000 0.250000 0
0.125000 0.312500 0
0.062500 0.312500 0
0.062500 0.312500 0
0.125000 0.312500 0
0.125000 0.375000 0
0.062500 0.375000 0
0.062500 0.375000 0
0.125000 0.375000 0
0.125000 0.437500 0
0.062500 0.437500 0
0.062500 0.437500 0
0.125000 0.437500 0
0.125000 0.500000 0
0.062500 0.500000 0
0.062500 0.500000 0
0.125000 0.500000 0
0.125000 0.562500 0
0.062500 0.562500 0
0.062500 0.562500 0
0.125000 0.562500 0
0.125000 0.625000 0
0.062500 0.625000 0
0.062500 0.625000 0
0.125000 0.625000 0
0.125000 0.687500 0
0.062500 0.687500 0
0.062500 0.687500 0
0.125000 0.687500 0
0.125000 0.750000 0
0.062500 0.750000 0
0.062500 0.750000 0
0.125000 0.750000 0
0.125000 0.812500 0
0.062500 0.812500 0
0.062500 0.812500 0
0.125000 0.812500 0
0.125000 0.875000 0
0.062500 0.875000 0
0.062500 0.875000 0
0.125000 0.875000 0
0.125000 0.937500 0
0.062500 0.937500 0
0.062500 0.937500 0
0.125000 0.937500 0
0.125000 1.000000 0
0.062500 1.000000 0
0.125000 0.000000 0
0.187500 0.000000 0
0.187500 0.062500 0
0.125000 0.062500 0
0.125000 0.062500 0
0.187500 0.062500 0
0.187500 0.125000 0
0.125000 0.125000 0
0.125000 0.125000 0
0.187500 0.125000 0
0.187500 0.187500 0
0.125000 0.187500 0
0.125000 0.187500 0
0.187500 0.187500 0
0.187500 0.250000 0
0.125000 0.250000 0
0.125000 0.250000 0
0.187500 0.250000 0
0.187500 0.312500 0
0.125000 0.312500 0
0.125000 0.312500 0
0.187500 0.312500 0
0.187500 0.375000 0
0.125000 0.375000 0
0.125000 0.375000 0
0.187500 0.375000 0
0.187500 0.437500 0
0.125000 0.437500 0
0.125000 0.437500 0
0.187500 0.437500 0
0.187500 0.500000 0
0.125000 0.500000 0
0.125000 0.500000 0
0.187500 0.500000 0
0.187500 0.562500 0
0.125000 0.562500 0
0.125000 0.562500 0
0.187500 0.562500 0
0.187500 0.625000 0
0.125000 0.625000 0
0.125000 0.625000 0
0.187500 0.625000 0
0.187500 0.687500 0
0.125000 0.687500 0
0.125000 0.687500 0
0.187500 0.687500 0
0.187500 0.750000 0
0.125000 0.750000 0
0.125000 0.750000 0
0.187500 0.750000 0
0.187500 0.812500 0
0.125000 0.812500 0
0.125000 0.812500 0
0.187500 0.812500 0
0.187500 0.875000 0
0.125000 0.875000 0
0.125000 0.875000 0
0.187500 0.875000 0
0.187500 0.937500 0
0.125000 0.937500 0
0.125000 0.937500 0
0.187500 0.937500 0
0.187500 1.000000 0
0.125000 1.000000 0
0.187500 0.000000 0
0.250000 0.000000 0
0.250000 0.062500 0
0.187500 0.062500 0
0.187500 0.062500 0
0.250000 0.062500 0
0.250000 0.125000 0
0.187500 0.125000 0
0.187500 0.125000 0
0.250000 0.125000 0
0.250000 0.187500 0
0.187500 0.187500 0
0.187500 0.187500 0
0.250000 0.187500 0
0.250000 0.250000 0
0.187500 0.250000 0
0.187500 0.250000 0
0.250000 0.250000 0
0.250000 0.312500 0
0.187500 0.312500 0
0.187500 0.312500 0
0.250000 0.312500 0
0.250000 0.375000 0
0.187500 0.375000 0
0.187500 0.375000 0
0.250000 0.375000 0
0.250000 0.437500 0
0.187500 0.437500 0
0.187500 0.437500 0
0.250000 0.437500 0
0.250000 0.500000 0
0.187500 0.500000 0
0.187500 0.500000 0
0.250000 0.500000 0
0.250000 0.562500 0
0.187500 0.562500 0
0.187500 0.562500 0
0.250000 0.562500 0
0.250000 0.625000 0
0.187500 0.625000 0
0.187500 0.625000 0
0.250000 0.625000 0
0.250000 0.687500 0
0.187500 0.687500 0
0.187500 0.687500 0
0.250000 0.687500 0
0.250000 0.750000 0
0.187500 0.750000 0
0.187500 0.750000 0
0.250000 0.750000 0
0.250000 0.812500 0
0.187500 0.812500 0
0.187500 0.812500 0
0.250000 0.812500 0
0.250000 0.875000 0
0.187500 0.875000 0
0.187500 0.875000 0
0.250000 0.875000 0
0.250000 0.937500 0
0.187500 0.937500 0
0.187500 0.937500 0
0.250000 0.937500 0
0.250000 1.000000 0
0.187500 1.000000 0
0.250000 0.000000 0
0.312500 0.000000 0
0.312500 0.062500 0
0.250000 0.062500 0
0.250000 0.062500 0
0.312500 0.062500 0
0.312500 0.125000 0
0.250000 0.125000 0
0.250000 0.125000 0
0.312500 0.125000 0
0.312500 0.187500 0
0.250000 0.187500 0
0.250000 0.187500 0
0.312500 0.187500 0
0.312500 0.250000 0
0.250000 0.250000 0
0.250000 0.250000 0
0.312500 0.250000 0
0.312500 0.312500 0
0.250000 0.312500 0
0.250000 0.312500 0
0.312500 0.312500 0
0.312500 0.375000 0
0.250000 0.375000 0
0.250000 0.375000 0
0.312500 0.375000 0
0.312500 0.437500 0
0.250000 0.437500 0
0.250000 0.437500 0
0.312500 0.437500 0
0.312500 0.500000 0
0.250000 0.500000 0
0.250000 0.500000 0
0.312500 0.500000 0
0.312500 0.562500 0
0.250000 0.562500 0
0.250000 0.562500 0
0.312500 0.562500 0
0.312500 0.625000 0
0.250000 0.625000 0
0.250000 0.625000 0
0.312500 0.625000 0
0.312500 0.687500 0
0.250000 0.687500 0
0.250000 0.687500 0
0.312500 0.687500 0
0.312500 0.750000 0
0.250000 0.750000 0
0.250000 0.750000 0
0.312500 0.750000 0
0.312500 0.812500 0
0.250000 0.812500 0
0.250000 0.812500 0
0.312500 0.812500 0
0.312500 0.875000 0
0.250000 0.875000 0
0.250000 0.875000 0
0.312500 0.875000 0
0.312500 0.937500 0
0.250000 0.937500 0
0.250000 0.937500 0
0.312500 0.937500 0
0.312500 1.000000 0
0.250000 1.000000 0
0.312500 0.000000 0
0.375000 0.000000 0
0.375000 0.062500 0
0.312500 0.062500 0
0.312500 0.062500 0
0.375000 0.062500 0
0.375000 0.125000 0
0.312500 0.125000 0
0.312500 0.125000 0
0.375000 0.125000 0
0.375000 0.187500 0
0.312500 0.187500 0
0.312500 0.187500 0
0.375000 0.187500 0
0.375000 0.250000 0
0.312500 0.250000 0
0.312500 0.250000 0
0.375000 0.250000 0
0.375000 0.312500 0
0.312500 0.312500 0
0.312500 0.312500 0
0.375000 0.312500 0
0.375000 0.375000 0
0.312500 0.375000 0
0.312500 0.375000 0
0.375000 0.375000 0
0.375000 0.437500 0
0.312500 0.437500 0
0.312500 0.437500 0
0.375000 0.437500 0
0.375000 0.500000 0
0.312500 0.500000 0
0.312500 0.500000 0
0.375000 0.500000 0
0.375000 0.562500 0
0.312500 0.562500 0
0.312500 0.562500 0
0.375000 0.562500 0
0.375000 0.625000 0
0.312500 0.625000 0
0.312500 0.625000 0
0.375000 0.625000 0
0.375000 0.687500 0
0.312500 0.687500 0
0.312500 0.687500 0
0.375000 0.687500 0
0.375000 0.750000 0
0.312500 0.750000 0
0.312500 0.750000 0
0.375000 0.750000 0
0.375000 0.812500 0
0.312500 0.812500 0
0.312500 0.812500 0
0.375000 0.812500 0
0.375000 0.875000 0
0.312500 0.875000 0
0.312500 0.875000 0
0.375000 0.875000 0
0.375000 0.937500 0
0.312500 0.937500 0
0.312500 0.937500 0
0.375000 0.937500 0
0.375000 1.000000 0
0.312500 1.000000 0
0.375000 0.000000 0
0.437500 0.000000 0
0.437500 0.062500 0
0.375000 0.062500 0
0.375000 0.062500 0
0.437500 0.062500 0
0.437500 0.125000 0
0.375000 0.125000 0
0.375000 0.125000 0
0.437500 0.125000 0
0.437500 0.187500 0
0.375000 0.187500 0
0.375000 0.187500 0
0.437500 0.187500 0
0.437500 0.250000 0
0.375000 0.250000 0
0.375000 0.250000 0
0.437500 0.250000 0
0.437500 0.312500 0
0.375000 0.312500 0
0.375000 0.312500 0
0.437500 0.312500 0
0.437500 0.375000 0
0.375000 0.375000 0
0.375000 0.375000 0
0.437500 0.375000 0
0.437500 0.437500 0
0.375000 0.437500 0
0.375000 0.437500 0
0.437500 0.437500 0
0.437500 0.500000 0
0.375000 0.500000 0
0.375000 0.500000 0
0.437500 0.500000 0
0.437500 0.562500 0
0.375000 0.562500 0
0.375000 0.562500 0
0.437500 0.562500 0
0.437500 0.625000 0
0.375000 0.625000 0
0.375000 0.625000 0
0.437500 0.625000 0
0.437500 0.687500 0
0.375000 0.687500 0
0.375000 0.687500 0
0.437500 0.687500 0
0.437500 0.750000 0
0.375000 0.750000 0
0.375000 0.750000 0
0.437500 0.750000 0
0.437500 0.812500 0
0.375000 0.812500 0
0.375000 0.812500 0
0.437500 0.812500 0
0.437500 0.875000 0
0.375000 0.875000 0
0.375000 0.875000 0
0.437500 0.875000 0
0.437500 0.937500 0
0.375000 0.937500 0
0.375000 0.937500 0
0.437500 0.937500 0
0.437500 1.000000 0
0.375000 1.000000 0
0.437500 0.000000 0
0.500000 0.000000 0
0.500000 0.062500 0
0.437500 0.062500 0
0.437500 0.062500 0
0.500000 0.062500 0
0.500000 0.125000 0
0.437500 0.125000 0
0.437500 0.125000 0
0.500000 0.125000 0
0.500000 0.187500 0
0.437500 0.187500 0
0.437500 0.187500 0
0.500000 0.187500 0
0.500000 0.250000 0
0.437500 0.250000 0
0.437500 0.250000 0
0.500000 0.250000 0
0.500000 0.312500 0
0.437500 0.312500 0
0.437500 0.312500 0
0.500000 0.312500 0
0.500000 0.375000 0
0.437500 0.375000 0
0.437500 0.375000 0
0.500000 0.375000 0
0.500000 0.437500 0
0.437500 0.437500 0
0.437500 0.437500 0
0.500000 0.437500 0
0.500000 0.500000 0
0.437500 0.500000 0
0.437500 0.500000 0
0.500000 0.500000 0
0.500000 0.562500 0
0.437500 0.562500 0
0.437500 0.562500 0
0.500000 0.562500 0
0.500000 0.625000 0
0.437500 0.625000 0
0.437500 0.625000 0
0.500000 0.625000 0
0.500000 0.687500 0
0.437500 0.687500 0
0.437500 0.687500 0
0.500000 0.687500 0
0.500000 0.750000 0
[...]
POINT_DATA 10240
VECTORS vel FLOAT
3.986598e-03 -4.117440e-03 0.000000e+00
6.125774e-03 -3.199259e-06 0.000000e+00
2.328922e-01 1.570772e-03 0.000000e+00
2.342035e-01 -5.472084e-03 0.000000e+00
2.342035e-01 -5.472084e-03 0.000000e+00
2.328922e-01 1.570772e-03 0.000000e+00
4.260843e-01 1.373638e-02 0.000000e+00
4.365367e-01 -4.139823e-03 0.000000e+00
4.365367e-01 -4.139823e-03 0.000000e+00
4.260843e-01 1.373638e-02 0.000000e+00
6.017318e-01 2.429766e-02 0.000000e+00
6.086579e-01 -1.875005e-03 0.000000e+00
6.086579e-01 -1.875005e-03 0.000000e+00
6.017318e-01 2.429766e-02 0.000000e+00
7.508699e-01 2.378267e-02 0.000000e+00
7.502441e-01 -1.080764e-03 0.000000e+00
7.502441e-01 -1.080764e-03 0.000000e+00
7.508699e-01 2.378267e-02 0.000000e+00
8.641295e-01 1.638660e-02 0.000000e+00
8.600122e-01 -1.649988e-03 0.000000e+00
8.600122e-01 -1.649988e-03 0.000000e+00
8.641295e-01 1.638660e-02 0.000000e+00
9.409751e-01 8.266211e-03 0.000000e+00
9.379780e-01 -1.969507e-03 0.000000e+00
9.379780e-01 -1.969507e-03 0.000000e+00
9.409751e-01 8.266211e-03 0.000000e+00
9.848335e-01 2.923179e-03 0.000000e+00
9.840915e-01 -1.365213e-03 0.000000e+00
9.840915e-01 -1.365213e-03 0.000000e+00
9.848335e-01 2.923179e-03 0.000000e+00
9.990282e-01 1.501397e-05 0.000000e+00
9.993392e-01 1.409633e-06 0.000000e+00
9.993392e-01 1.409633e-06 0.000000e+00
9.990282e-01 1.501397e-05 0.000000e+00
9.848147e-01 -2.889743e-03 0.000000e+00
9.841355e-01 1.367487e-03 0.000000e+00
9.841355e-01 1.367487e-03 0.000000e+00
9.848147e-01 -2.889743e-03 0.000000e+00
9.409581e-01 -8.225658e-03 0.000000e+00
9.380567e-01 1.970230e-03 0.000000e+00
9.380567e-01 1.970230e-03 0.000000e+00
9.409581e-01 -8.225658e-03 0.000000e+00
8.641689e-01 -1.635381e-02 0.000000e+00
8.600126e-01 1.652099e-03 0.000000e+00
8.600126e-01 1.652099e-03 0.000000e+00
8.641689e-01 -1.635381e-02 0.000000e+00
7.508875e-01 -2.375693e-02 0.000000e+00
7.502024e-01 1.080720e-03 0.000000e+00
7.502024e-01 1.080720e-03 0.000000e+00
7.508875e-01 -2.375693e-02 0.000000e+00
6.017599e-01 -2.428830e-02 0.000000e+00
6.086614e-01 1.870863e-03 0.000000e+00
6.086614e-01 1.870863e-03 0.000000e+00
6.017599e-01 -2.428830e-02 0.000000e+00
4.261099e-01 -1.375852e-02 0.000000e+00
4.365399e-01 4.129668e-03 0.000000e+00
4.365399e-01 4.129668e-03 0.000000e+00
4.261099e-01 -1.375852e-02 0.000000e+00
2.328829e-01 -1.595429e-03 0.000000e+00
2.342042e-01 5.458300e-03 0.000000e+00
2.342042e-01 5.458300e-03 0.000000e+00
2.328829e-01 -1.595429e-03 0.000000e+00
6.109348e-03 2.089764e-06 0.000000e+00
3.987871e-03 4.121434e-03 0.000000e+00
6.125774e-03 -3.199259e-06 0.000000e+00
5.565191e-03 1.163337e-03 0.000000e+00
2.199562e-01 1.552856e-02 0.000000e+00
2.328922e-01 1.570772e-03 0.000000e+00
2.328922e-01 1.570772e-03 0.000000e+00
2.199562e-01 1.552856e-02 0.000000e+00
4.097120e-01 3.505900e-02 0.000000e+00
4.260843e-01 1.373638e-02 0.000000e+00
4.260843e-01 1.373638e-02 0.000000e+00
4.097120e-01 3.505900e-02 0.000000e+00
5.965128e-01 4.589750e-02 0.000000e+00
6.017318e-01 2.429766e-02 0.000000e+00
6.017318e-01 2.429766e-02 0.000000e+00
5.965128e-01 4.589750e-02 0.000000e+00
7.578472e-01 4.220498e-02 0.000000e+00
7.508699e-01 2.378267e-02 0.000000e+00
7.508699e-01 2.378267e-02 0.000000e+00
7.578472e-01 4.220498e-02 0.000000e+00
8.757329e-01 2.914034e-02 0.000000e+00
8.641295e-01 1.638660e-02 0.000000e+00
8.641295e-01 1.638660e-02 0.000000e+00
8.757329e-01 2.914034e-02 0.000000e+00
9.503898e-01 1.619806e-02 0.000000e+00
9.409751e-01 8.266211e-03 0.000000e+00
9.409751e-01 8.266211e-03 0.000000e+00
9.503898e-01 1.619806e-02 0.000000e+00
9.907569e-01 6.727629e-03 0.000000e+00
9.848335e-01 2.923179e-03 0.000000e+00
9.848335e-01 2.923179e-03 0.000000e+00
9.907569e-01 6.727629e-03 0.000000e+00
1.003477e+00 -7.218107e-05 0.000000e+00
9.990282e-01 1.501397e-05 0.000000e+00
9.990282e-01 1.501397e-05 0.000000e+00
1.003477e+00 -7.218107e-05 0.000000e+00
9.906899e-01 -6.883562e-03 0.000000e+00
9.848147e-01 -2.889743e-03 0.000000e+00
9.848147e-01 -2.889743e-03 0.000000e+00
9.906899e-01 -6.883562e-03 0.000000e+00
9.502677e-01 -1.636624e-02 0.000000e+00
9.409581e-01 -8.225658e-03 0.000000e+00
9.409581e-01 -8.225658e-03 0.000000e+00
9.502677e-01 -1.636624e-02 0.000000e+00
8.755960e-01 -2.927900e-02 0.000000e+00
8.641689e-01 -1.635381e-02 0.000000e+00
8.641689e-01 -1.635381e-02 0.000000e+00
8.755960e-01 -2.927900e-02 0.000000e+00
7.580151e-01 -4.217446e-02 0.000000e+00
7.508875e-01 -2.375693e-02 0.000000e+00
7.508875e-01 -2.375693e-02 0.000000e+00
7.580151e-01 -4.217446e-02 0.000000e+00
5.965696e-01 -4.588717e-02 0.000000e+00
6.017599e-01 -2.428830e-02 0.000000e+00
6.017599e-01 -2.428830e-02 0.000000e+00
5.965696e-01 -4.588717e-02 0.000000e+00
4.097567e-01 -3.506959e-02 0.000000e+00
4.261099e-01 -1.375852e-02 0.000000e+00
4.261099e-01 -1.375852e-02 0.000000e+00
4.097567e-01 -3.506959e-02 0.000000e+00
2.199385e-01 -1.553625e-02 0.000000e+00
2.328829e-01 -1.595429e-03 0.000000e+00
2.328829e-01 -1.595429e-03 0.000000e+00
2.199385e-01 -1.553625e-02 0.000000e+00
5.545535e-03 -1.163136e-03 0.000000e+00
6.109348e-03 2.089764e-06 0.000000e+00
5.565191e-03 1.163337e-03 0.000000e+00
2.556000e-03 1.590024e-03 0.000000e+00
2.011192e-01 1.877971e-02 0.000000e+00
2.199562e-01 1.552856e-02 0.000000e+00
2.199562e-01 1.552856e-02 0.000000e+00
2.011192e-01 1.877971e-02 0.000000e+00
3.938535e-01 3.596992e-02 0.000000e+00
4.097120e-01 3.505900e-02 0.000000e+00
4.097120e-01 3.505900e-02 0.000000e+00
3.938535e-01 3.596992e-02 0.000000e+00
5.942515e-01 4.418324e-02 0.000000e+00
5.965128e-01 4.589750e-02 0.000000e+00
5.965128e-01 4.589750e-02 0.000000e+00
5.942515e-01 4.418324e-02 0.000000e+00
7.679854e-01 3.848265e-02 0.000000e+00
7.578472e-01 4.220498e-02 0.000000e+00
7.578472e-01 4.220498e-02 0.000000e+00
7.679854e-01 3.848265e-02 0.000000e+00
8.895576e-01 2.597422e-02 0.000000e+00
8.757329e-01 2.914034e-02 0.000000e+00
8.757329e-01 2.914034e-02 0.000000e+00
8.895576e-01 2.597422e-02 0.000000e+00
9.619222e-01 1.415877e-02 0.000000e+00
9.503898e-01 1.619806e-02 0.000000e+00
9.503898e-01 1.619806e-02 0.000000e+00
9.619222e-01 1.415877e-02 0.000000e+00
9.987369e-01 5.840580e-03 0.000000e+00
9.907569e-01 6.727629e-03 0.000000e+00
9.907569e-01 6.727629e-03 0.000000e+00
9.987369e-01 5.840580e-03 0.000000e+00
1.009961e+00 1.574370e-05 0.000000e+00
1.003477e+00 -7.218107e-05 0.000000e+00
1.003477e+00 -7.218107e-05 0.000000e+00
1.009961e+00 1.574370e-05 0.000000e+00
9.986732e-01 -5.803339e-03 0.000000e+00
9.906899e-01 -6.883562e-03 0.000000e+00
9.906899e-01 -6.883562e-03 0.000000e+00
9.986732e-01 -5.803339e-03 0.000000e+00
9.618410e-01 -1.410886e-02 0.000000e+00
9.502677e-01 -1.636624e-02 0.000000e+00
9.502677e-01 -1.636624e-02 0.000000e+00
9.618410e-01 -1.410886e-02 0.000000e+00
8.895331e-01 -2.591959e-02 0.000000e+00
8.755960e-01 -2.927900e-02 0.000000e+00
8.755960e-01 -2.927900e-02 0.000000e+00
8.895331e-01 -2.591959e-02 0.000000e+00
7.680785e-01 -3.845867e-02 0.000000e+00
7.580151e-01 -4.217446e-02 0.000000e+00
7.580151e-01 -4.217446e-02 0.000000e+00
7.680785e-01 -3.845867e-02 0.000000e+00
5.943239e-01 -4.418153e-02 0.000000e+00
5.965696e-01 -4.588717e-02 0.000000e+00
5.965696e-01 -4.588717e-02 0.000000e+00
5.943239e-01 -4.418153e-02 0.000000e+00
3.938993e-01 -3.596338e-02 0.000000e+00
4.097567e-01 -3.506959e-02 0.000000e+00
4.097567e-01 -3.506959e-02 0.000000e+00
3.938993e-01 -3.596338e-02 0.000000e+00
2.010989e-01 -1.877399e-02 0.000000e+00
2.199385e-01 -1.553625e-02 0.000000e+00
2.199385e-01 -1.553625e-02 0.000000e+00
2.010989e-01 -1.877399e-02 0.000000e+00
2.536394e-03 -1.588712e-03 0.000000e+00
5.545535e-03 -1.163136e-03 0.000000e+00
2.556000e-03 1.590024e-03 0.000000e+00
1.153883e-04 7.704777e-04 0.000000e+00
1.869702e-01 1.089691e-02 0.000000e+00
2.011192e-01 1.877971e-02 0.000000e+00
2.011192e-01 1.877971e-02 0.000000e+00
1.869702e-01 1.089691e-02 0.000000e+00
3.839153e-01 1.903640e-02 0.000000e+00
3.938535e-01 3.596992e-02 0.000000e+00
3.938535e-01 3.596992e-02 0.000000e+00
3.839153e-01 1.903640e-02 0.000000e+00
5.943312e-01 2.172250e-02 0.000000e+00
5.942515e-01 4.418324e-02 0.000000e+00
5.942515e-01 4.418324e-02 0.000000e+00
5.943312e-01 2.172250e-02 0.000000e+00
7.770573e-01 1.652185e-02 0.000000e+00
7.679854e-01 3.848265e-02 0.000000e+00
7.679854e-01 3.848265e-02 0.000000e+00
7.770573e-01 1.652185e-02 0.000000e+00
9.001369e-01 8.534453e-03 0.000000e+00
8.895576e-01 2.597422e-02 0.000000e+00
8.895576e-01 2.597422e-02 0.000000e+00
9.001369e-01 8.534453e-03 0.000000e+00
9.696471e-01 2.627254e-03 0.000000e+00
9.619222e-01 1.415877e-02 0.000000e+00
9.619222e-01 1.415877e-02 0.000000e+00
9.696471e-01 2.627254e-03 0.000000e+00
1.003237e+00 1.840894e-04 0.000000e+00
9.987369e-01 5.840580e-03 0.000000e+00
9.987369e-01 5.840580e-03 0.000000e+00
1.003237e+00 1.840894e-04 0.000000e+00
1.013201e+00 6.620396e-05 0.000000e+00
1.009961e+00 1.574370e-05 0.000000e+00
1.009961e+00 1.574370e-05 0.000000e+00
1.013201e+00 6.620396e-05 0.000000e+00
1.003232e+00 -6.046521e-05 0.000000e+00
9.986732e-01 -5.803339e-03 0.000000e+00
9.986732e-01 -5.803339e-03 0.000000e+00
1.003232e+00 -6.046521e-05 0.000000e+00
9.696757e-01 -2.529608e-03 0.000000e+00
9.618410e-01 -1.410886e-02 0.000000e+00
9.618410e-01 -1.410886e-02 0.000000e+00
9.696757e-01 -2.529608e-03 0.000000e+00
9.002082e-01 -8.479051e-03 0.000000e+00
8.895331e-01 -2.591959e-02 0.000000e+00
8.895331e-01 -2.591959e-02 0.000000e+00
9.002082e-01 -8.479051e-03 0.000000e+00
7.768508e-01 -1.653363e-02 0.000000e+00
7.680785e-01 -3.845867e-02 0.000000e+00
7.680785e-01 -3.845867e-02 0.000000e+00
7.768508e-01 -1.653363e-02 0.000000e+00
5.944065e-01 -2.171882e-02 0.000000e+00
5.943239e-01 -4.418153e-02 0.000000e+00
5.943239e-01 -4.418153e-02 0.000000e+00
5.944065e-01 -2.171882e-02 0.000000e+00
3.839539e-01 -1.895815e-02 0.000000e+00
3.938993e-01 -3.596338e-02 0.000000e+00
3.938993e-01 -3.596338e-02 0.000000e+00
3.839539e-01 -1.895815e-02 0.000000e+00
1.869544e-01 -1.087517e-02 0.000000e+00
2.010989e-01 -1.877399e-02 0.000000e+00
2.010989e-01 -1.877399e-02 0.000000e+00
1.869544e-01 -1.087517e-02 0.000000e+00
1.010844e-04 -7.683581e-04 0.000000e+00
2.536394e-03 -1.588712e-03 0.000000e+00
1.153883e-04 7.704777e-04 0.000000e+00
-1.595155e-04 -3.404893e-04 0.000000e+00
1.827668e-01 -3.476805e-04 0.000000e+00
1.869702e-01 1.089691e-02 0.000000e+00
1.869702e-01 1.089691e-02 0.000000e+00
1.827668e-01 -3.476805e-04 0.000000e+00
3.817262e-01 -3.833924e-04 0.000000e+00
3.839153e-01 1.903640e-02 0.000000e+00
3.839153e-01 1.903640e-02 0.000000e+00
3.817262e-01 -3.833924e-04 0.000000e+00
5.965560e-01 -2.137771e-03 0.000000e+00
5.943312e-01 2.172250e-02 0.000000e+00
5.943312e-01 2.172250e-02 0.000000e+00
5.965560e-01 -2.137771e-03 0.000000e+00
7.823004e-01 -6.307202e-03 0.000000e+00
7.770573e-01 1.652185e-02 0.000000e+00
7.770573e-01 1.652185e-02 0.000000e+00
7.823004e-01 -6.307202e-03 0.000000e+00
9.042646e-01 -9.798111e-03 0.000000e+00
9.001369e-01 8.534453e-03 0.000000e+00
9.001369e-01 8.534453e-03 0.000000e+00
9.042646e-01 -9.798111e-03 0.000000e+00
9.703441e-01 -9.882154e-03 0.000000e+00
9.696471e-01 2.627254e-03 0.000000e+00
9.696471e-01 2.627254e-03 0.000000e+00
9.703441e-01 -9.882154e-03 0.000000e+00
1.000770e+00 -6.107513e-03 0.000000e+00
1.003237e+00 1.840894e-04 0.000000e+00
1.003237e+00 1.840894e-04 0.000000e+00
1.000770e+00 -6.107513e-03 0.000000e+00
1.009471e+00 1.319054e-04 0.000000e+00
1.013201e+00 6.620396e-05 0.000000e+00
1.013201e+00 6.620396e-05 0.000000e+00
1.009471e+00 1.319054e-04 0.000000e+00
1.000782e+00 6.355297e-03 0.000000e+00
1.003232e+00 -6.046521e-05 0.000000e+00
1.003232e+00 -6.046521e-05 0.000000e+00
1.000782e+00 6.355297e-03 0.000000e+00
9.704166e-01 1.008040e-02 0.000000e+00
9.696757e-01 -2.529608e-03 0.000000e+00
9.696757e-01 -2.529608e-03 0.000000e+00
9.704166e-01 1.008040e-02 0.000000e+00
9.044180e-01 9.921390e-03 0.000000e+00
9.002082e-01 -8.479051e-03 0.000000e+00
9.002082e-01 -8.479051e-03 0.000000e+00
9.044180e-01 9.921390e-03 0.000000e+00
7.822289e-01 6.336592e-03 0.000000e+00
7.768508e-01 -1.653363e-02 0.000000e+00
7.768508e-01 -1.653363e-02 0.000000e+00
7.822289e-01 6.336592e-03 0.000000e+00
5.966339e-01 2.139948e-03 0.000000e+00
5.944065e-01 -2.171882e-02 0.000000e+00
5.944065e-01 -2.171882e-02 0.000000e+00
5.966339e-01 2.139948e-03 0.000000e+00
3.817492e-01 3.966248e-04 0.000000e+00
3.839539e-01 -1.895815e-02 0.000000e+00
3.839539e-01 -1.895815e-02 0.000000e+00
3.817492e-01 3.966248e-04 0.000000e+00
1.827523e-01 3.713745e-04 0.000000e+00
1.869544e-01 -1.087517e-02 0.000000e+00
1.869544e-01 -1.087517e-02 0.000000e+00
1.827523e-01 3.713745e-04 0.000000e+00
-1.656373e-04 3.425731e-04 0.000000e+00
1.010844e-04 -7.683581e-04 0.000000e+00
-1.595155e-04 -3.404893e-04 0.000000e+00
1.314985e-03 -1.208635e-03 0.000000e+00
1.854511e-01 -6.230035e-03 0.000000e+00
1.827668e-01 -3.476805e-04 0.000000e+00
1.827668e-01 -3.476805e-04 0.000000e+00
1.854511e-01 -6.230035e-03 0.000000e+00
3.843863e-01 -9.923625e-03 0.000000e+00
3.817262e-01 -3.833924e-04 0.000000e+00
3.817262e-01 -3.833924e-04 0.000000e+00
3.843863e-01 -9.923625e-03 0.000000e+00
6.001466e-01 -1.404324e-02 0.000000e+00
5.965560e-01 -2.137771e-03 0.000000e+00
5.965560e-01 -2.137771e-03 0.000000e+00
6.001466e-01 -1.404324e-02 0.000000e+00
7.853179e-01 -1.770847e-02 0.000000e+00
7.823004e-01 -6.307202e-03 0.000000e+00
7.823004e-01 -6.307202e-03 0.000000e+00
7.853179e-01 -1.770847e-02 0.000000e+00
9.043964e-01 -1.899484e-02 0.000000e+00
9.042646e-01 -9.798111e-03 0.000000e+00
9.042646e-01 -9.798111e-03 0.000000e+00
9.043964e-01 -1.899484e-02 0.000000e+00
9.663425e-01 -1.620360e-02 0.000000e+00
9.703441e-01 -9.882154e-03 0.000000e+00
9.703441e-01 -9.882154e-03 0.000000e+00
9.663425e-01 -1.620360e-02 0.000000e+00
9.933129e-01 -9.287319e-03 0.000000e+00
1.000770e+00 -6.107513e-03 0.000000e+00
1.000770e+00 -6.107513e-03 0.000000e+00
9.933129e-01 -9.287319e-03 0.000000e+00
1.000706e+00 1.169159e-04 0.000000e+00
1.009471e+00 1.319054e-04 0.000000e+00
1.009471e+00 1.319054e-04 0.000000e+00
1.000706e+00 1.169159e-04 0.000000e+00
9.933580e-01 9.502433e-03 0.000000e+00
1.000782e+00 6.355297e-03 0.000000e+00
1.000782e+00 6.355297e-03 0.000000e+00
9.933580e-01 9.502433e-03 0.000000e+00
9.664757e-01 1.636400e-02 0.000000e+00
9.704166e-01 1.008040e-02 0.000000e+00
9.704166e-01 1.008040e-02 0.000000e+00
9.664757e-01 1.636400e-02 0.000000e+00
9.046374e-01 1.908517e-02 0.000000e+00
9.044180e-01 9.921390e-03 0.000000e+00
9.044180e-01 9.921390e-03 0.000000e+00
9.046374e-01 1.908517e-02 0.000000e+00
7.853680e-01 1.771936e-02 0.000000e+00
7.822289e-01 6.336592e-03 0.000000e+00
7.822289e-01 6.336592e-03 0.000000e+00
7.853680e-01 1.771936e-02 0.000000e+00
6.002171e-01 1.404946e-02 0.000000e+00
5.966339e-01 2.139948e-03 0.000000e+00
5.966339e-01 2.139948e-03 0.000000e+00
6.002171e-01 1.404946e-02 0.000000e+00
3.843994e-01 9.937349e-03 0.000000e+00
3.817492e-01 3.966248e-04 0.000000e+00
3.817492e-01 3.966248e-04 0.000000e+00
3.843994e-01 9.937349e-03 0.000000e+00
1.854398e-01 6.242882e-03 0.000000e+00
1.827523e-01 3.713745e-04 0.000000e+00
1.827523e-01 3.713745e-04 0.000000e+00
1.854398e-01 6.242882e-03 0.000000e+00
1.314500e-03 1.209638e-03 0.000000e+00
-1.656373e-04 3.425731e-04 0.000000e+00
1.314985e-03 -1.208635e-03 0.000000e+00
3.121914e-03 -1.100385e-03 0.000000e+00
1.902058e-01 -6.447317e-03 0.000000e+00
1.854511e-01 -6.230035e-03 0.000000e+00
1.854511e-01 -6.230035e-03 0.000000e+00
1.902058e-01 -6.447317e-03 0.000000e+00
3.885397e-01 -1.036062e-02 0.000000e+00
3.843863e-01 -9.923625e-03 0.000000e+00
3.843863e-01 -9.923625e-03 0.000000e+00
3.885397e-01 -1.036062e-02 0.000000e+00
6.042188e-01 -1.466489e-02 0.000000e+00
6.001466e-01 -1.404324e-02 0.000000e+00
6.001466e-01 -1.404324e-02 0.000000e+00
6.042188e-01 -1.466489e-02 0.000000e+00
7.876995e-01 -1.806939e-02 0.000000e+00
7.853179e-01 -1.770847e-02 0.000000e+00
7.853179e-01 -1.770847e-02 0.000000e+00
7.876995e-01 -1.806939e-02 0.000000e+00
9.033480e-01 -1.894325e-02 0.000000e+00
9.043964e-01 -1.899484e-02 0.000000e+00
9.043964e-01 -1.899484e-02 0.000000e+00
9.033480e-01 -1.894325e-02 0.000000e+00
9.610319e-01 -1.587265e-02 0.000000e+00
9.663425e-01 -1.620360e-02 0.000000e+00
9.663425e-01 -1.620360e-02 0.000000e+00
9.610319e-01 -1.587265e-02 0.000000e+00
9.846442e-01 -9.025664e-03 0.000000e+00
9.933129e-01 -9.287319e-03 0.000000e+00
9.933129e-01 -9.287319e-03 0.000000e+00
9.846442e-01 -9.025664e-03 0.000000e+00
9.907927e-01 5.841518e-05 0.000000e+00
1.000706e+00 1.169159e-04 0.000000e+00
1.000706e+00 1.169159e-04 0.000000e+00
9.907927e-01 5.841518e-05 0.000000e+00
9.847157e-01 9.129836e-03 0.000000e+00
9.933580e-01 9.502433e-03 0.000000e+00
9.933580e-01 9.502433e-03 0.000000e+00
9.847157e-01 9.129836e-03 0.000000e+00
9.612078e-01 1.594080e-02 0.000000e+00
9.664757e-01 1.636400e-02 0.000000e+00
9.664757e-01 1.636400e-02 0.000000e+00
9.612078e-01 1.594080e-02 0.000000e+00
9.036426e-01 1.897009e-02 0.000000e+00
9.046374e-01 1.908517e-02 0.000000e+00
9.046374e-01 1.908517e-02 0.000000e+00
9.036426e-01 1.897009e-02 0.000000e+00
7.878092e-01 1.805953e-02 0.000000e+00
7.853680e-01 1.771936e-02 0.000000e+00
7.853680e-01 1.771936e-02 0.000000e+00
7.878092e-01 1.805953e-02 0.000000e+00
6.042785e-01 1.467461e-02 0.000000e+00
6.002171e-01 1.404946e-02 0.000000e+00
6.002171e-01 1.404946e-02 0.000000e+00
6.042785e-01 1.467461e-02 0.000000e+00
3.885537e-01 1.037348e-02 0.000000e+00
3.843994e-01 9.937349e-03 0.000000e+00
3.843994e-01 9.937349e-03 0.000000e+00
3.885537e-01 1.037348e-02 0.000000e+00
1.902011e-01 6.451399e-03 0.000000e+00
1.854398e-01 6.242882e-03 0.000000e+00
1.854398e-01 6.242882e-03 0.000000e+00
1.902011e-01 6.451399e-03 0.000000e+00
3.123013e-03 1.100270e-03 0.000000e+00
1.314500e-03 1.209638e-03 0.000000e+00
3.121914e-03 -1.100385e-03 0.000000e+00
4.347009e-03 -5.437396e-04 0.000000e+00
1.941678e-01 -4.157470e-03 0.000000e+00
1.902058e-01 -6.447317e-03 0.000000e+00
1.902058e-01 -6.447317e-03 0.000000e+00
1.941678e-01 -4.157470e-03 0.000000e+00
3.922325e-01 -6.996531e-03 0.000000e+00
3.885397e-01 -1.036062e-02 0.000000e+00
3.885397e-01 -1.036062e-02 0.000000e+00
3.922325e-01 -6.996531e-03 0.000000e+00
6.078787e-01 -1.025694e-02 0.000000e+00
6.042188e-01 -1.466489e-02 0.000000e+00
6.042188e-01 -1.466489e-02 0.000000e+00
6.078787e-01 -1.025694e-02 0.000000e+00
7.899004e-01 -1.309339e-02 0.000000e+00
7.876995e-01 -1.806939e-02 0.000000e+00
7.876995e-01 -1.806939e-02 0.000000e+00
7.899004e-01 -1.309339e-02 0.000000e+00
9.025615e-01 -1.401917e-02 0.000000e+00
9.033480e-01 -1.894325e-02 0.000000e+00
9.033480e-01 -1.894325e-02 0.000000e+00
9.025615e-01 -1.401917e-02 0.000000e+00
9.566161e-01 -1.187933e-02 0.000000e+00
9.610319e-01 -1.587265e-02 0.000000e+00
9.610319e-01 -1.587265e-02 0.000000e+00
9.566161e-01 -1.187933e-02 0.000000e+00
9.774124e-01 -6.806695e-03 0.000000e+00
9.846442e-01 -9.025664e-03 0.000000e+00
9.846442e-01 -9.025664e-03 0.000000e+00
9.774124e-01 -6.806695e-03 0.000000e+00
9.825138e-01 6.178891e-06 0.000000e+00
9.907927e-01 5.841518e-05 0.000000e+00
9.907927e-01 5.841518e-05 0.000000e+00
9.825138e-01 6.178891e-06 0.000000e+00
9.774928e-01 6.814678e-03 0.000000e+00
9.847157e-01 9.129836e-03 0.000000e+00
9.847157e-01 9.129836e-03 0.000000e+00
9.774928e-01 6.814678e-03 0.000000e+00
9.568045e-01 1.187580e-02 0.000000e+00
9.612078e-01 1.594080e-02 0.000000e+00
9.612078e-01 1.594080e-02 0.000000e+00
9.568045e-01 1.187580e-02 0.000000e+00
9.028675e-01 1.400504e-02 0.000000e+00
9.036426e-01 1.897009e-02 0.000000e+00
9.036426e-01 1.897009e-02 0.000000e+00
9.028675e-01 1.400504e-02 0.000000e+00
7.900155e-01 1.307960e-02 0.000000e+00
7.878092e-01 1.805953e-02 0.000000e+00
7.878092e-01 1.805953e-02 0.000000e+00
7.900155e-01 1.307960e-02 0.000000e+00
6.079298e-01 1.026512e-02 0.000000e+00
6.042785e-01 1.467461e-02 0.000000e+00
6.042785e-01 1.467461e-02 0.000000e+00
6.079298e-01 1.026512e-02 0.000000e+00
3.922509e-01 7.006504e-03 0.000000e+00
3.885537e-01 1.037348e-02 0.000000e+00
3.885537e-01 1.037348e-02 0.000000e+00