# vtk DataFile Version 3.0
higtree
ASCII
DATASET UNSTRUCTURED_GRID
POINTS 10240 float
0.000000 0.000000 0
0.062500 0.000000 0
0.062500 0.062500 0
0.000000 0.062500 0
0.000000 0.062500 0
0.062500 0.062500 0
0.062500 0.125000 0
0.000000 0.125000 0
0.000000 0.125000 0
0.062500 0.125000 0
0.062500 0.187500 0
0.000000 0.187500 0
0.000000 0.187500 0
0.062500 0.187500 0
0.062500 0.250000 0
0.000000 0.250000 0
0.000000 0.250000 0
0.062500 0.250000 0
0.062500 0.312500 0
0.000000 0.312500 0
0.000000 0.312500 0
0.062500 0.312500 0
0.062500 0.375000 0
0.000000 0.375000 0
0.000000 0.375000 0
0.062500 0.375000 0
0.062500 0.437500 0
0.000000 0.437500 0
0.000000 0.437500 0
0.062500 0.437500 0
0.062500 0.500000 0
0.000000 0.500000 0
0.000000 0.500000 0
0.062500 0.500000 0
0.062500 0.562500 0
0.000000 0.562500 0
0.000000 0.562500 0
0.062500 0.562500 0
0.062500 0.625000 0
0.000000 0.625000 0
0.000000 0.625000 0
0.062500 0.625000 0
0.062500 0.687500 0
0.000000 0.687500 0
0.000000 0.687500 0
0.062500 0.687500 0
0.062500 0.750000 0
0.000000 0.750000 0
0.000000 0.750000 0
0.062500 0.750000 0
0.062500 0.812500 0
0.000000 0.812500 0
0.000000 0.812500 0
0.062500 0.812500 0
0.062500 0.875000 0
0.000000 0.875000 0
0.000000 0.875000 0
0.062500 0.875000 0
0.062500 0.937500 0
0.000000 0.937500 0
0.000000 0.937500 0
0.062500 0.937500 0
0.062500 1.000000 0
0.000000 1.000000 0
0.062500 0.000000 0
0.125000 0.000000 0
0.125000 0.062500 0
0.062500 0.062500 0
0.062500 0.062500 0
0.125000 0.062500 0
0.125000 0.125000 0
0.062500 0.125000 0
0.062500 0.125000 0
0.125000 0.125000 0
0.125000 0.187500 0
0.062500 0.187500 0
0.062500 0.187500 0
0.125000 0.187500 0
0.125000 0.250000 0
0.062500 0.250000 0
0.062500 0.250000 0
0.125000 0.250000 0
0.125000 0.312500 0
0.062500 0.312500 0
0.062500 0.312500 0
0.125000 0.312500 0
0.125000 0.375000 0
0.062500 0.375000 0
0.062500 0.375000 0
0.125000 0.375000 0
0.125000 0.437500 0
0.062500 0.437500 0
0.062500 0.437500 0
0.125000 0.437500 0
0.125000 0.500000 0
0.062500 0.500000 0
0.062500 0.500000 0
0.125000 0.500000 0
0.125000 0.562500 0
0.062500 0.562500 0
0.062500 0.562500 0
0.125000 0.562500 0
0.125000 0.625000 0
0.062500 0.625000 0
0.062500 0.625000 0
0.125000 0.625000 0
0.125000 0.687500 0
0.062500 0.687500 0
0.062500 0.687500 0
0.125000 0.687500 0
0.125000 0.750000 0
0.062500 0.750000 0
0.062500 0.750000 0
0.125000 0.750000 0
0.125000 0.812500 0
0.062500 0.812500 0
0.062500 0.812500 0
0.125000 0.812500 0
0.125000 0.875000 0
0.062500 0.875000 0
0.062500 0.875000 0
0.125000 0.875000 0
0.125000 0.937500 0
0.062500 0.937500 0
0.062500 0.937500 0
0.125000 0.937500 0
0.125000 1.000000 0
0.062500 1.000000 0
0.125000 0.000000 0
0.187500 0.000000 0
0.187500 0.062500 0
0.125000 0.062500 0
0.125000 0.062500 0
0.187500 0.062500 0
0.187500 0.125000 0
0.125000 0.125000 0
0.125000 0.125000 0
0.187500 0.125000 0
0.187500 0.187500 0
0.125000 0.187500 0
0.125000 0.187500 0
0.187500 0.187500 0
0.187500 0.250000 0
0.125000 0.250000 0
0.125000 0.250000 0
0.187500 0.250000 0
0.187500 0.312500 0
0.125000 0.312500 0
0.125000 0.312500 0
0.187500 0.312500 0
0.187500 0.375000 0
0.125000 0.375000 0
0.125000 0.375000 0
0.187500 0.375000 0
0.187500 0.437500 0
0.125000 0.437500 0
0.125000 0.437500 0
0.187500 0.437500 0
0.187500 0.500000 0
0.125000 0.500000 0
0.125000 0.500000 0
0.187500 0.500000 0
0.187500 0.562500 0
0.125000 0.562500 0
0.125000 0.562500 0
0.187500 0.562500 0
0.187500 0.625000 0
0.125000 0.625000 0
0.125000 0.625000 0
0.187500 0.625000 0
0.187500 0.687500 0
0.125000 0.687500 0
0.125000 0.687500 0
0.187500 0.687500 0
0.187500 0.750000 0
0.125000 0.750000 0
0.125000 0.750000 0
0.187500 0.750000 0
0.187500 0.812500 0
0.125000 0.812500 0
0.125000 0.812500 0
0.187500 0.812500 0
0.187500 0.875000 0
0.125000 0.875000 0
0.125000 0.875000 0
0.187500 0.875000 0
0.187500 0.937500 0
0.125000 0.937500 0
0.125000 0.937500 0
0.187500 0.937500 0
0.187500 1.000000 0
0.125000 1.000000 0
0.187500 0.000000 0
0.250000 0.000000 0
0.250000 0.062500 0
0.187500 0.062500 0
0.187500 0.062500 0
0.250000 0.062500 0
0.250000 0.125000 0
0.187500 0.125000 0
0.187500 0.125000 0
0.250000 0.125000 0
0.250000 0.187500 0
0.187500 0.187500 0
0.187500 0.187500 0
0.250000 0.187500 0
0.250000 0.250000 0
0.187500 0.250000 0
0.187500 0.250000 0
0.250000 0.250000 0
0.250000 0.312500 0
0.187500 0.312500 0
0.187500 0.312500 0
0.250000 0.312500 0
0.250000 0.375000 0
0.187500 0.375000 0
0.187500 0.375000 0
0.250000 0.375000 0
0.250000 0.437500 0
0.187500 0.437500 0
0.187500 0.437500 0
0.250000 0.437500 0
0.250000 0.500000 0
0.187500 0.500000 0
0.187500 0.500000 0
0.250000 0.500000 0
0.250000 0.562500 0
0.187500 0.562500 0
0.187500 0.562500 0
0.250000 0.562500 0
0.250000 0.625000 0
0.187500 0.625000 0
0.187500 0.625000 0
0.250000 0.625000 0
0.250000 0.687500 0
0.187500 0.687500 0
0.187500 0.687500 0
0.250000 0.687500 0
0.250000 0.750000 0
0.187500 0.750000 0
0.187500 0.750000 0
0.250000 0.750000 0
0.250000 0.812500 0
0.187500 0.812500 0
0.187500 0.812500 0
0.250000 0.812500 0
0.250000 0.875000 0
0.187500 0.875000 0
0.187500 0.875000 0
0.250000 0.875000 0
0.250000 0.937500 0
0.187500 0.937500 0
0.187500 0.937500 0
0.250000 0.937500 0
0.250000 1.000000 0
0.187500 1.000000 0
0.250000 0.000000 0
0.312500 0.000000 0
0.312500 0.062500 0
0.250000 0.062500 0
0.250000 0.062500 0
0.312500 0.062500 0
0.312500 0.125000 0
0.250000 0.125000 0
0.250000 0.125000 0
0.312500 0.125000 0
0.312500 0.187500 0
0.250000 0.187500 0
0.250000 0.187500 0
0.312500 0.187500 0
0.312500 0.250000 0
0.250000 0.250000 0
0.250000 0.250000 0
0.312500 0.250000 0
0.312500 0.312500 0
0.250000 0.312500 0
0.250000 0.312500 0
0.312500 0.312500 0
0.312500 0.375000 0
0.250000 0.375000 0
0.250000 0.375000 0
0.312500 0.375000 0
0.312500 0.437500 0
0.250000 0.437500 0
0.250000 0.437500 0
0.312500 0.437500 0
0.312500 0.500000 0
0.250000 0.500000 0
0.250000 0.500000 0
0.312500 0.500000 0
0.312500 0.562500 0
0.250000 0.562500 0
0.250000 0.562500 0
0.312500 0.562500 0
0.312500 0.625000 0
0.250000 0.625000 0
0.250000 0.625000 0
0.312500 0.625000 0
0.312500 0.687500 0
0.250000 0.687500 0
0.250000 0.687500 0
0.312500 0.687500 0
0.312500 0.750000 0
0.250000 0.750000 0
0.250000 0.750000 0
0.312500 0.750000 0
0.312500 0.812500 0
0.250000 0.812500 0
0.250000 0.812500 0
0.312500 0.812500 0
0.312500 0.875000 0
0.250000 0.875000 0
0.250000 0.875000 0
0.312500 0.875000 0
0.312500 0.937500 0
0.250000 0.937500 0
0.250000 0.937500 0
0.312500 0.937500 0
0.312500 1.000000 0
0.250000 1.000000 0
0.312500 0.000000 0
0.375000 0.000000 0
0.375000 0.062500 0
0.312500 0.062500 0
0.312500 0.062500 0
0.375000 0.062500 0
0.375000 0.125000 0
0.312500 0.125000 0
0.312500 0.125000 0
0.375000 0.125000 0
0.375000 0.187500 0
0.312500 0.187500 0
0.312500 0.187500 0
0.375000 0.187500 0
0.375000 0.250000 0
0.312500 0.250000 0
0.312500 0.250000 0
0.375000 0.250000 0
0.375000 0.312500 0
0.312500 0.312500 0
0.312500 0.312500 0
0.375000 0.312500 0
0.375000 0.375000 0
0.312500 0.375000 0
0.312500 0.375000 0
0.375000 0.375000 0
0.375000 0.437500 0
0.312500 0.437500 0
0.312500 0.437500 0
0.375000 0.437500 0
0.375000 0.500000 0
0.312500 0.500000 0
0.312500 0.500000 0
0.375000 0.500000 0
0.375000 0.562500 0
0.312500 0.562500 0
0.312500 0.562500 0
0.375000 0.562500 0
0.375000 0.625000 0
0.312500 0.625000 0
0.312500 0.625000 0
0.375000 0.625000 0
0.375000 0.687500 0
0.312500 0.687500 0
0.312500 0.687500 0
0.375000 0.687500 0
0.375000 0.750000 0
0.312500 0.750000 0
0.312500 0.750000 0
0.375000 0.750000 0
0.375000 0.812500 0
0.312500 0.812500 0
0.312500 0.812500 0
0.375000 0.812500 0
0.375000 0.875000 0
0.312500 0.875000 0
0.312500 0.875000 0
0.375000 0.875000 0
0.375000 0.937500 0
0.312500 0.937500 0
0.312500 0.937500 0
0.375000 0.937500 0
0.375000 1.000000 0
0.312500 1.000000 0
0.375000 0.000000 0
0.437500 0.000000 0
0.437500 0.062500 0
0.375000 0.062500 0
0.375000 0.062500 0
0.437500 0.062500 0
0.437500 0.125000 0
0.375000 0.125000 0
0.375000 0.125000 0
0.437500 0.125000 0
0.437500 0.187500 0
0.375000 0.187500 0
0.375000 0.187500 0
0.437500 0.187500 0
0.437500 0.250000 0
0.375000 0.250000 0
0.375000 0.250000 0
0.437500 0.250000 0
0.437500 0.312500 0
0.375000 0.312500 0
0.375000 0.312500 0
0.437500 0.312500 0
0.437500 0.375000 0
0.375000 0.375000 0
0.375000 0.375000 0
0.437500 0.375000 0
0.437500 0.437500 0
0.375000 0.437500 0
0.375000 0.437500 0
0.437500 0.437500 0
0.437500 0.500000 0
0.375000 0.500000 0
0.375000 0.500000 0
0.437500 0.500000 0
0.437500 0.562500 0
0.375000 0.562500 0
0.375000 0.562500 0
0.437500 0.562500 0
0.437500 0.625000 0
0.375000 0.625000 0
0.375000 0.625000 0
0.437500 0.625000 0
0.437500 0.687500 0
0.375000 0.687500 0
0.375000 0.687500 0
0.437500 0.687500 0
0.437500 0.750000 0
0.375000 0.750000 0
0.375000 0.750000 0
0.437500 0.750000 0
0.437500 0.812500 0
0.375000 0.812500 0
0.375000 0.812500 0
0.437500 0.812500 0
0.437500 0.875000 0
0.375000 0.875000 0
0.375000 0.875000 0
0.437500 0.875000 0
0.437500 0.937500 0
0.375000 0.937500 0
0.375000 0.937500 0
0.437500 0.937500 0
0.437500 1.000000 0
0.375000 1.000000 0
0.437500 0.000000 0
0.500000 0.000000 0
0.500000 0.062500 0
0.437500 0.062500 0
0.437500 0.062500 0
0.500000 0.062500 0
0.500000 0.125000 0
0.437500 0.125000 0
0.437500 0.125000 0
0.500000 0.125000 0
0.500000 0.187500 0
0.437500 0.187500 0
0.437500 0.187500 0
0.500000 0.187500 0
0.500000 0.250000 0
0.437500 0.250000 0
0.437500 0.250000 0
0.500000 0.250000 0
0.500000 0.312500 0
0.437500 0.312500 0
0.437500 0.312500 0
0.500000 0.312500 0
0.500000 0.375000 0
0.437500 0.375000 0
0.437500 0.375000 0
0.500000 0.375000 0
0.500000 0.437500 0
0.437500 0.437500 0
0.437500 0.437500 0
0.500000 0.437500 0
0.500000 0.500000 0
0.437500 0.500000 0
0.437500 0.500000 0
0.500000 0.500000 0
0.500000 0.562500 0
0.437500 0.562500 0
0.437500 0.562500 0
0.500000 0.562500 0
0.500000 0.625000 0
0.437500 0.625000 0
0.437500 0.625000 0
0.500000 0.625000 0
0.500000 0.687500 0
0.437500 0.687500 0
0.437500 0.687500 0
0.500000 0.687500 0
0.500000 0.750000 0
[...]
POINT_DATA 10240
VECTORS vel FLOAT
1.039572e-02 -1.269324e-02 0.000000e+00
-7.852654e-03 1.454745e-03 0.000000e+00
2.109399e-01 3.738930e-02 0.000000e+00
2.346804e-01 5.009648e-03 0.000000e+00
2.346804e-01 5.009648e-03 0.000000e+00
2.109399e-01 3.738930e-02 0.000000e+00
4.288103e-01 5.541152e-02 0.000000e+00
4.383529e-01 9.546587e-03 0.000000e+00
4.383529e-01 9.546587e-03 0.000000e+00
4.288103e-01 5.541152e-02 0.000000e+00
6.186400e-01 5.375503e-02 0.000000e+00
6.114933e-01 9.086091e-03 0.000000e+00
6.114933e-01 9.086091e-03 0.000000e+00
6.186400e-01 5.375503e-02 0.000000e+00
7.686583e-01 3.884161e-02 0.000000e+00
7.524379e-01 5.856178e-03 0.000000e+00
7.524379e-01 5.856178e-03 0.000000e+00
7.686583e-01 3.884161e-02 0.000000e+00
8.754986e-01 2.144968e-02 0.000000e+00
8.611148e-01 1.951325e-03 0.000000e+00
8.611148e-01 1.951325e-03 0.000000e+00
8.754986e-01 2.144968e-02 0.000000e+00
9.472175e-01 9.536830e-03 0.000000e+00
9.376361e-01 2.091160e-05 0.000000e+00
9.376361e-01 2.091160e-05 0.000000e+00
9.472175e-01 9.536830e-03 0.000000e+00
9.892923e-01 3.237365e-03 0.000000e+00
9.832500e-01 -3.535745e-04 0.000000e+00
9.832500e-01 -3.535745e-04 0.000000e+00
9.892923e-01 3.237365e-03 0.000000e+00
1.003323e+00 3.623149e-06 0.000000e+00
9.984328e-01 3.563968e-07 0.000000e+00
9.984328e-01 3.563968e-07 0.000000e+00
1.003323e+00 3.623149e-06 0.000000e+00
9.892630e-01 -3.229791e-03 0.000000e+00
9.832827e-01 3.518152e-04 0.000000e+00
9.832827e-01 3.518152e-04 0.000000e+00
9.892630e-01 -3.229791e-03 0.000000e+00
9.471359e-01 -9.521267e-03 0.000000e+00
9.377210e-01 -3.004557e-05 0.000000e+00
9.377210e-01 -3.004557e-05 0.000000e+00
9.471359e-01 -9.521267e-03 0.000000e+00
8.753368e-01 -2.141397e-02 0.000000e+00
8.611100e-01 -1.956338e-03 0.000000e+00
8.611100e-01 -1.956338e-03 0.000000e+00
8.753368e-01 -2.141397e-02 0.000000e+00
7.686059e-01 -3.875365e-02 0.000000e+00
7.525828e-01 -5.839438e-03 0.000000e+00
7.525828e-01 -5.839438e-03 0.000000e+00
7.686059e-01 -3.875365e-02 0.000000e+00
6.186649e-01 -5.366003e-02 0.000000e+00
6.114946e-01 -9.068294e-03 0.000000e+00
6.114946e-01 -9.068294e-03 0.000000e+00
6.186649e-01 -5.366003e-02 0.000000e+00
4.288644e-01 -5.534328e-02 0.000000e+00
4.383568e-01 -9.539695e-03 0.000000e+00
4.383568e-01 -9.539695e-03 0.000000e+00
4.288644e-01 -5.534328e-02 0.000000e+00
2.109703e-01 -3.737446e-02 0.000000e+00
2.346821e-01 -5.013861e-03 0.000000e+00
2.346821e-01 -5.013861e-03 0.000000e+00
2.109703e-01 -3.737446e-02 0.000000e+00
-7.861066e-03 -1.455085e-03 0.000000e+00
1.038152e-02 1.268152e-02 0.000000e+00
-7.852654e-03 1.454745e-03 0.000000e+00
-1.935340e-02 1.995310e-03 0.000000e+00
1.838633e-01 3.991661e-02 0.000000e+00
2.109399e-01 3.738930e-02 0.000000e+00
2.109399e-01 3.738930e-02 0.000000e+00
1.838633e-01 3.991661e-02 0.000000e+00
4.233809e-01 5.352870e-02 0.000000e+00
4.288103e-01 5.541152e-02 0.000000e+00
4.288103e-01 5.541152e-02 0.000000e+00
4.233809e-01 5.352870e-02 0.000000e+00
6.320393e-01 4.599408e-02 0.000000e+00
6.186400e-01 5.375503e-02 0.000000e+00
6.186400e-01 5.375503e-02 0.000000e+00
6.320393e-01 4.599408e-02 0.000000e+00
7.877729e-01 2.749817e-02 0.000000e+00
7.686583e-01 3.884161e-02 0.000000e+00
7.686583e-01 3.884161e-02 0.000000e+00
7.877729e-01 2.749817e-02 0.000000e+00
8.907017e-01 1.067011e-02 0.000000e+00
8.754986e-01 2.144968e-02 0.000000e+00
8.754986e-01 2.144968e-02 0.000000e+00
8.907017e-01 1.067011e-02 0.000000e+00
9.555718e-01 1.577918e-03 0.000000e+00
9.472175e-01 9.536830e-03 0.000000e+00
9.472175e-01 9.536830e-03 0.000000e+00
9.555718e-01 1.577918e-03 0.000000e+00
9.927972e-01 -1.059813e-03 0.000000e+00
9.892923e-01 3.237365e-03 0.000000e+00
9.892923e-01 3.237365e-03 0.000000e+00
9.927972e-01 -1.059813e-03 0.000000e+00
1.005177e+00 -1.779652e-04 0.000000e+00
1.003323e+00 3.623149e-06 0.000000e+00
1.003323e+00 3.623149e-06 0.000000e+00
1.005177e+00 -1.779652e-04 0.000000e+00
9.927683e-01 6.706869e-04 0.000000e+00
9.892630e-01 -3.229791e-03 0.000000e+00
9.892630e-01 -3.229791e-03 0.000000e+00
9.927683e-01 6.706869e-04 0.000000e+00
9.554530e-01 -2.035681e-03 0.000000e+00
9.471359e-01 -9.521267e-03 0.000000e+00
9.471359e-01 -9.521267e-03 0.000000e+00
9.554530e-01 -2.035681e-03 0.000000e+00
8.904032e-01 -1.117872e-02 0.000000e+00
8.753368e-01 -2.141397e-02 0.000000e+00
8.753368e-01 -2.141397e-02 0.000000e+00
8.904032e-01 -1.117872e-02 0.000000e+00
7.876040e-01 -2.743590e-02 0.000000e+00
7.686059e-01 -3.875365e-02 0.000000e+00
7.686059e-01 -3.875365e-02 0.000000e+00
7.876040e-01 -2.743590e-02 0.000000e+00
6.320654e-01 -4.593117e-02 0.000000e+00
6.186649e-01 -5.366003e-02 0.000000e+00
6.186649e-01 -5.366003e-02 0.000000e+00
6.320654e-01 -4.593117e-02 0.000000e+00
4.234766e-01 -5.347473e-02 0.000000e+00
4.288644e-01 -5.534328e-02 0.000000e+00
4.288644e-01 -5.534328e-02 0.000000e+00
4.234766e-01 -5.347473e-02 0.000000e+00
1.839377e-01 -3.988707e-02 0.000000e+00
2.109703e-01 -3.737446e-02 0.000000e+00
2.109703e-01 -3.737446e-02 0.000000e+00
1.839377e-01 -3.988707e-02 0.000000e+00
-1.935916e-02 -1.993712e-03 0.000000e+00
-7.861066e-03 -1.455085e-03 0.000000e+00
-1.935340e-02 1.995310e-03 0.000000e+00
-2.698744e-02 1.106654e-03 0.000000e+00
1.663177e-01 2.306397e-02 0.000000e+00
1.838633e-01 3.991661e-02 0.000000e+00
1.838633e-01 3.991661e-02 0.000000e+00
1.663177e-01 2.306397e-02 0.000000e+00
4.254992e-01 2.515240e-02 0.000000e+00
4.233809e-01 5.352870e-02 0.000000e+00
4.233809e-01 5.352870e-02 0.000000e+00
4.254992e-01 2.515240e-02 0.000000e+00
6.474221e-01 1.269775e-02 0.000000e+00
6.320393e-01 4.599408e-02 0.000000e+00
6.320393e-01 4.599408e-02 0.000000e+00
6.474221e-01 1.269775e-02 0.000000e+00
8.050774e-01 -3.829832e-03 0.000000e+00
7.877729e-01 2.749817e-02 0.000000e+00
7.877729e-01 2.749817e-02 0.000000e+00
8.050774e-01 -3.829832e-03 0.000000e+00
9.006635e-01 -1.432558e-02 0.000000e+00
8.907017e-01 1.067011e-02 0.000000e+00
8.907017e-01 1.067011e-02 0.000000e+00
9.006635e-01 -1.432558e-02 0.000000e+00
9.573985e-01 -1.580221e-02 0.000000e+00
9.555718e-01 1.577918e-03 0.000000e+00
9.555718e-01 1.577918e-03 0.000000e+00
9.573985e-01 -1.580221e-02 0.000000e+00
9.890953e-01 -9.892945e-03 0.000000e+00
9.927972e-01 -1.059813e-03 0.000000e+00
9.927972e-01 -1.059813e-03 0.000000e+00
9.890953e-01 -9.892945e-03 0.000000e+00
9.995327e-01 1.712036e-05 0.000000e+00
1.005177e+00 -1.779652e-04 0.000000e+00
1.005177e+00 -1.779652e-04 0.000000e+00
9.995327e-01 1.712036e-05 0.000000e+00
9.890245e-01 9.933032e-03 0.000000e+00
9.927683e-01 6.706869e-04 0.000000e+00
9.927683e-01 6.706869e-04 0.000000e+00
9.890245e-01 9.933032e-03 0.000000e+00
9.572176e-01 1.585032e-02 0.000000e+00
9.554530e-01 -2.035681e-03 0.000000e+00
9.554530e-01 -2.035681e-03 0.000000e+00
9.572176e-01 1.585032e-02 0.000000e+00
9.003326e-01 1.437521e-02 0.000000e+00
8.904032e-01 -1.117872e-02 0.000000e+00
8.904032e-01 -1.117872e-02 0.000000e+00
9.003326e-01 1.437521e-02 0.000000e+00
8.046764e-01 3.842538e-03 0.000000e+00
7.876040e-01 -2.743590e-02 0.000000e+00
7.876040e-01 -2.743590e-02 0.000000e+00
8.046764e-01 3.842538e-03 0.000000e+00
6.474572e-01 -1.270377e-02 0.000000e+00
6.320654e-01 -4.593117e-02 0.000000e+00
6.320654e-01 -4.593117e-02 0.000000e+00
6.474572e-01 -1.270377e-02 0.000000e+00
4.255919e-01 -2.515775e-02 0.000000e+00
4.234766e-01 -5.347473e-02 0.000000e+00
4.234766e-01 -5.347473e-02 0.000000e+00
4.255919e-01 -2.515775e-02 0.000000e+00
1.663997e-01 -2.304100e-02 0.000000e+00
1.839377e-01 -3.988707e-02 0.000000e+00
1.839377e-01 -3.988707e-02 0.000000e+00
1.663997e-01 -2.304100e-02 0.000000e+00
-2.698561e-02 -1.104645e-03 0.000000e+00
-1.935916e-02 -1.993712e-03 0.000000e+00
-2.698744e-02 1.106654e-03 0.000000e+00
-2.970345e-02 -6.152355e-04 0.000000e+00
1.634176e-01 4.211282e-03 0.000000e+00
1.663177e-01 2.306397e-02 0.000000e+00
1.663177e-01 2.306397e-02 0.000000e+00
1.634176e-01 4.211282e-03 0.000000e+00
4.355604e-01 -2.543838e-03 0.000000e+00
4.254992e-01 2.515240e-02 0.000000e+00
4.254992e-01 2.515240e-02 0.000000e+00
4.355604e-01 -2.543838e-03 0.000000e+00
6.623382e-01 -1.732856e-02 0.000000e+00
6.474221e-01 1.269775e-02 0.000000e+00
6.474221e-01 1.269775e-02 0.000000e+00
6.623382e-01 -1.732856e-02 0.000000e+00
8.164443e-01 -3.013586e-02 0.000000e+00
8.050774e-01 -3.829832e-03 0.000000e+00
8.050774e-01 -3.829832e-03 0.000000e+00
8.164443e-01 -3.013586e-02 0.000000e+00
9.028908e-01 -3.483391e-02 0.000000e+00
9.006635e-01 -1.432558e-02 0.000000e+00
9.006635e-01 -1.432558e-02 0.000000e+00
9.028908e-01 -3.483391e-02 0.000000e+00
9.504676e-01 -2.985366e-02 0.000000e+00
9.573985e-01 -1.580221e-02 0.000000e+00
9.573985e-01 -1.580221e-02 0.000000e+00
9.504676e-01 -2.985366e-02 0.000000e+00
9.758808e-01 -1.695877e-02 0.000000e+00
9.890953e-01 -9.892945e-03 0.000000e+00
9.890953e-01 -9.892945e-03 0.000000e+00
9.758808e-01 -1.695877e-02 0.000000e+00
9.841478e-01 2.169845e-04 0.000000e+00
9.995327e-01 1.712036e-05 0.000000e+00
9.995327e-01 1.712036e-05 0.000000e+00
9.841478e-01 2.169845e-04 0.000000e+00
9.758939e-01 1.737105e-02 0.000000e+00
9.890245e-01 9.933032e-03 0.000000e+00
9.890245e-01 9.933032e-03 0.000000e+00
9.758939e-01 1.737105e-02 0.000000e+00
9.505254e-01 3.018915e-02 0.000000e+00
9.572176e-01 1.585032e-02 0.000000e+00
9.572176e-01 1.585032e-02 0.000000e+00
9.505254e-01 3.018915e-02 0.000000e+00
9.030348e-01 3.504841e-02 0.000000e+00
9.003326e-01 1.437521e-02 0.000000e+00
9.003326e-01 1.437521e-02 0.000000e+00
9.030348e-01 3.504841e-02 0.000000e+00
8.165991e-01 3.015585e-02 0.000000e+00
8.046764e-01 3.842538e-03 0.000000e+00
8.046764e-01 3.842538e-03 0.000000e+00
8.165991e-01 3.015585e-02 0.000000e+00
6.623832e-01 1.729633e-02 0.000000e+00
6.474572e-01 -1.270377e-02 0.000000e+00
6.474572e-01 -1.270377e-02 0.000000e+00
6.623832e-01 1.729633e-02 0.000000e+00
4.356296e-01 2.517242e-03 0.000000e+00
4.255919e-01 -2.515775e-02 0.000000e+00
4.255919e-01 -2.515775e-02 0.000000e+00
4.356296e-01 2.517242e-03 0.000000e+00
1.634835e-01 -4.211149e-03 0.000000e+00
1.663997e-01 -2.304100e-02 0.000000e+00
1.663997e-01 -2.304100e-02 0.000000e+00
1.634835e-01 -4.211149e-03 0.000000e+00
-2.969541e-02 6.152714e-04 0.000000e+00
-2.698561e-02 -1.104645e-03 0.000000e+00
-2.970345e-02 -6.152355e-04 0.000000e+00
-2.956616e-02 -1.567303e-03 0.000000e+00
1.692625e-01 -4.583453e-03 0.000000e+00
1.634176e-01 4.211282e-03 0.000000e+00
1.634176e-01 4.211282e-03 0.000000e+00
1.692625e-01 -4.583453e-03 0.000000e+00
4.477679e-01 -1.338930e-02 0.000000e+00
4.355604e-01 -2.543838e-03 0.000000e+00
4.355604e-01 -2.543838e-03 0.000000e+00
4.477679e-01 -1.338930e-02 0.000000e+00
6.756741e-01 -2.685788e-02 0.000000e+00
6.623382e-01 -1.732856e-02 0.000000e+00
6.623382e-01 -1.732856e-02 0.000000e+00
6.756741e-01 -2.685788e-02 0.000000e+00
8.239564e-01 -3.723767e-02 0.000000e+00
8.164443e-01 -3.013586e-02 0.000000e+00
8.164443e-01 -3.013586e-02 0.000000e+00
8.239564e-01 -3.723767e-02 0.000000e+00
9.010833e-01 -3.964167e-02 0.000000e+00
9.028908e-01 -3.483391e-02 0.000000e+00
9.028908e-01 -3.483391e-02 0.000000e+00
9.010833e-01 -3.964167e-02 0.000000e+00
9.395893e-01 -3.273446e-02 0.000000e+00
9.504676e-01 -2.985366e-02 0.000000e+00
9.504676e-01 -2.985366e-02 0.000000e+00
9.395893e-01 -3.273446e-02 0.000000e+00
9.588061e-01 -1.832316e-02 0.000000e+00
9.758808e-01 -1.695877e-02 0.000000e+00
9.758808e-01 -1.695877e-02 0.000000e+00
9.588061e-01 -1.832316e-02 0.000000e+00
9.649176e-01 1.498799e-04 0.000000e+00
9.841478e-01 2.169845e-04 0.000000e+00
9.841478e-01 2.169845e-04 0.000000e+00
9.649176e-01 1.498799e-04 0.000000e+00
9.588597e-01 1.860436e-02 0.000000e+00
9.758939e-01 1.737105e-02 0.000000e+00
9.758939e-01 1.737105e-02 0.000000e+00
9.588597e-01 1.860436e-02 0.000000e+00
9.397211e-01 3.295548e-02 0.000000e+00
9.505254e-01 3.018915e-02 0.000000e+00
9.505254e-01 3.018915e-02 0.000000e+00
9.397211e-01 3.295548e-02 0.000000e+00
9.013435e-01 3.976929e-02 0.000000e+00
9.030348e-01 3.504841e-02 0.000000e+00
9.030348e-01 3.504841e-02 0.000000e+00
9.013435e-01 3.976929e-02 0.000000e+00
8.242698e-01 3.724123e-02 0.000000e+00
8.165991e-01 3.015585e-02 0.000000e+00
8.165991e-01 3.015585e-02 0.000000e+00
8.242698e-01 3.724123e-02 0.000000e+00
6.757223e-01 2.683342e-02 0.000000e+00
6.623832e-01 1.729633e-02 0.000000e+00
6.623832e-01 1.729633e-02 0.000000e+00
6.757223e-01 2.683342e-02 0.000000e+00
4.478285e-01 1.336798e-02 0.000000e+00
4.356296e-01 2.517242e-03 0.000000e+00
4.356296e-01 2.517242e-03 0.000000e+00
4.478285e-01 1.336798e-02 0.000000e+00
1.693171e-01 4.565771e-03 0.000000e+00
1.634835e-01 -4.211149e-03 0.000000e+00
1.634835e-01 -4.211149e-03 0.000000e+00
1.693171e-01 4.565771e-03 0.000000e+00
-2.955969e-02 1.565704e-03 0.000000e+00
-2.969541e-02 6.152714e-04 0.000000e+00
-2.956616e-02 -1.567303e-03 0.000000e+00
-2.900640e-02 -1.284014e-03 0.000000e+00
1.760597e-01 -3.925309e-03 0.000000e+00
1.692625e-01 -4.583453e-03 0.000000e+00
1.692625e-01 -4.583453e-03 0.000000e+00
1.760597e-01 -3.925309e-03 0.000000e+00
4.587530e-01 -1.091015e-02 0.000000e+00
4.477679e-01 -1.338930e-02 0.000000e+00
4.477679e-01 -1.338930e-02 0.000000e+00
4.587530e-01 -1.091015e-02 0.000000e+00
6.870491e-01 -2.168861e-02 0.000000e+00
6.756741e-01 -2.685788e-02 0.000000e+00
6.756741e-01 -2.685788e-02 0.000000e+00
6.870491e-01 -2.168861e-02 0.000000e+00
8.300898e-01 -3.019299e-02 0.000000e+00
8.239564e-01 -3.723767e-02 0.000000e+00
8.239564e-01 -3.723767e-02 0.000000e+00
8.300898e-01 -3.019299e-02 0.000000e+00
8.989871e-01 -3.237249e-02 0.000000e+00
9.010833e-01 -3.964167e-02 0.000000e+00
9.010833e-01 -3.964167e-02 0.000000e+00
8.989871e-01 -3.237249e-02 0.000000e+00
9.293783e-01 -2.687951e-02 0.000000e+00
9.395893e-01 -3.273446e-02 0.000000e+00
9.395893e-01 -3.273446e-02 0.000000e+00
9.293783e-01 -2.687951e-02 0.000000e+00
9.430294e-01 -1.512344e-02 0.000000e+00
9.588061e-01 -1.832316e-02 0.000000e+00
9.588061e-01 -1.832316e-02 0.000000e+00
9.430294e-01 -1.512344e-02 0.000000e+00
9.471868e-01 5.124413e-05 0.000000e+00
9.649176e-01 1.498799e-04 0.000000e+00
9.649176e-01 1.498799e-04 0.000000e+00
9.471868e-01 5.124413e-05 0.000000e+00
9.430996e-01 1.521836e-02 0.000000e+00
9.588597e-01 1.860436e-02 0.000000e+00
9.588597e-01 1.860436e-02 0.000000e+00
9.430996e-01 1.521836e-02 0.000000e+00
9.295452e-01 2.694937e-02 0.000000e+00
9.397211e-01 3.295548e-02 0.000000e+00
9.397211e-01 3.295548e-02 0.000000e+00
9.295452e-01 2.694937e-02 0.000000e+00
8.992988e-01 3.239620e-02 0.000000e+00
9.013435e-01 3.976929e-02 0.000000e+00
9.013435e-01 3.976929e-02 0.000000e+00
8.992988e-01 3.239620e-02 0.000000e+00
8.304591e-01 3.016987e-02 0.000000e+00
8.242698e-01 3.724123e-02 0.000000e+00
8.242698e-01 3.724123e-02 0.000000e+00
8.304591e-01 3.016987e-02 0.000000e+00
6.870995e-01 2.167045e-02 0.000000e+00
6.757223e-01 2.683342e-02 0.000000e+00
6.757223e-01 2.683342e-02 0.000000e+00
6.870995e-01 2.167045e-02 0.000000e+00
4.588145e-01 1.088784e-02 0.000000e+00
4.478285e-01 1.336798e-02 0.000000e+00
4.478285e-01 1.336798e-02 0.000000e+00
4.588145e-01 1.088784e-02 0.000000e+00
1.761066e-01 3.902612e-03 0.000000e+00
1.693171e-01 4.565771e-03 0.000000e+00
1.693171e-01 4.565771e-03 0.000000e+00
1.761066e-01 3.902612e-03 0.000000e+00
-2.900502e-02 1.282017e-03 0.000000e+00
-2.955969e-02 1.565704e-03 0.000000e+00
-2.900640e-02 -1.284014e-03 0.000000e+00
-2.918578e-02 -3.950655e-04 0.000000e+00
1.804480e-01 -6.347030e-04 0.000000e+00
1.760597e-01 -3.925309e-03 0.000000e+00
1.760597e-01 -3.925309e-03 0.000000e+00
1.804480e-01 -6.347030e-04 0.000000e+00
4.668413e-01 -5.015641e-03 0.000000e+00
4.587530e-01 -1.091015e-02 0.000000e+00
4.587530e-01 -1.091015e-02 0.000000e+00
4.668413e-01 -5.015641e-03 0.000000e+00
6.957969e-01 -1.241025e-02 0.000000e+00
6.870491e-01 -2.168861e-02 0.000000e+00
6.870491e-01 -2.168861e-02 0.000000e+00
6.957969e-01 -1.241025e-02 0.000000e+00
8.352961e-01 -1.891999e-02 0.000000e+00
8.300898e-01 -3.019299e-02 0.000000e+00
8.300898e-01 -3.019299e-02 0.000000e+00
8.352961e-01 -1.891999e-02 0.000000e+00
8.980689e-01 -2.117540e-02 0.000000e+00
8.989871e-01 -3.237249e-02 0.000000e+00
8.989871e-01 -3.237249e-02 0.000000e+00
8.980689e-01 -2.117540e-02 0.000000e+00
9.222716e-01 -1.799017e-02 0.000000e+00
9.293783e-01 -2.687951e-02 0.000000e+00
9.293783e-01 -2.687951e-02 0.000000e+00
9.222716e-01 -1.799017e-02 0.000000e+00
9.316114e-01 -1.025612e-02 0.000000e+00
9.430294e-01 -1.512344e-02 0.000000e+00
9.430294e-01 -1.512344e-02 0.000000e+00
9.316114e-01 -1.025612e-02 0.000000e+00
9.342432e-01 -1.349755e-05 0.000000e+00
9.471868e-01 5.124413e-05 0.000000e+00
9.471868e-01 5.124413e-05 0.000000e+00
9.342432e-01 -1.349755e-05 0.000000e+00
9.316754e-01 1.022982e-02 0.000000e+00
9.430996e-01 1.521836e-02 0.000000e+00
9.430996e-01 1.521836e-02 0.000000e+00
9.316754e-01 1.022982e-02 0.000000e+00
9.224313e-01 1.796649e-02 0.000000e+00
9.295452e-01 2.694937e-02 0.000000e+00
9.295452e-01 2.694937e-02 0.000000e+00
9.224313e-01 1.796649e-02 0.000000e+00
8.983753e-01 2.114759e-02 0.000000e+00
8.992988e-01 3.239620e-02 0.000000e+00
8.992988e-01 3.239620e-02 0.000000e+00
8.983753e-01 2.114759e-02 0.000000e+00
8.356547e-01 1.889320e-02 0.000000e+00
8.304591e-01 3.016987e-02 0.000000e+00
8.304591e-01 3.016987e-02 0.000000e+00
8.356547e-01 1.889320e-02 0.000000e+00
6.958528e-01 1.239327e-02 0.000000e+00
6.870995e-01 2.167045e-02 0.000000e+00
6.870995e-01 2.167045e-02 0.000000e+00
6.958528e-01 1.239327e-02 0.000000e+00
4.669063e-01 4.991136e-03 0.000000e+00
4.588145e-01 1.088784e-02 0.000000e+00
4.588145e-01 1.088784e-02 0.000000e+00
4.669063e-01 4.991136e-03 0.000000e+00
1.804852e-01 6.143623e-04 0.000000e+00
1.761066e-01 3.902612e-03 0.000000e+00
1.761066e-01 3.902612e-03 0.000000e+00
1.804852e-01 6.143623e-04 0.000000e+00
-2.918968e-02 3.938382e-04 0.000000e+00
-2.900502e-02 1.282017e-03 0.000000e+00
-2.918578e-02 -3.950655e-04 0.000000e+00
-2.996876e-02 2.241090e-04 0.000000e+00
1.823531e-01 1.444473e-03 0.000000e+00
1.804480e-01 -6.347030e-04 0.000000e+00
1.804480e-01 -6.347030e-04 0.000000e+00
1.823531e-01 1.444473e-03 0.000000e+00
4.719921e-01 -9.011027e-04 0.000000e+00
4.668413e-01 -5.015641e-03 0.000000e+00
4.668413e-01 -5.015641e-03 0.000000e+00
4.719921e-01 -9.011027e-04 0.000000e+00
7.018341e-01 -5.459774e-03 0.000000e+00
6.957969e-01 -1.241025e-02 0.000000e+00
6.957969e-01 -1.241025e-02 0.000000e+00
7.018341e-01 -5.459774e-03 0.000000e+00
8.393800e-01 -1.001015e-02 0.000000e+00
8.352961e-01 -1.891999e-02 0.000000e+00
8.352961e-01 -1.891999e-02 0.000000e+00
8.393800e-01 -1.001015e-02 0.000000e+00
8.981428e-01 -1.204099e-02 0.000000e+00
8.980689e-01 -2.117540e-02 0.000000e+00
8.980689e-01 -2.117540e-02 0.000000e+00
8.981428e-01 -1.204099e-02 0.000000e+00
9.181604e-01 -1.059883e-02 0.000000e+00
9.222716e-01 -1.799017e-02 0.000000e+00
9.222716e-01 -1.799017e-02 0.000000e+00
9.181604e-01 -1.059883e-02 0.000000e+00
9.245227e-01 -6.156692e-03 0.000000e+00
9.316114e-01 -1.025612e-02 0.000000e+00
9.316114e-01 -1.025612e-02 0.000000e+00
9.245227e-01 -6.156692e-03 0.000000e+00
9.260894e-01 -3.549177e-05 0.000000e+00
9.342432e-01 -1.349755e-05 0.000000e+00
9.342432e-01 -1.349755e-05 0.000000e+00
9.260894e-01 -3.549177e-05 0.000000e+00
9.245696e-01 6.090234e-03 0.000000e+00
9.316754e-01 1.022982e-02 0.000000e+00
9.316754e-01 1.022982e-02 0.000000e+00
9.245696e-01 6.090234e-03 0.000000e+00
9.182914e-01 1.054679e-02 0.000000e+00
9.224313e-01 1.796649e-02 0.000000e+00
9.224313e-01 1.796649e-02 0.000000e+00
9.182914e-01 1.054679e-02 0.000000e+00
8.984174e-01 1.200446e-02 0.000000e+00
8.983753e-01 2.114759e-02 0.000000e+00
8.983753e-01 2.114759e-02 0.000000e+00
8.984174e-01 1.200446e-02 0.000000e+00
8.397037e-01 9.993710e-03 0.000000e+00
8.356547e-01 1.889320e-02 0.000000e+00
8.356547e-01 1.889320e-02 0.000000e+00
8.397037e-01 9.993710e-03 0.000000e+00
7.018943e-01 5.443023e-03 0.000000e+00
6.958528e-01 1.239327e-02 0.000000e+00
6.958528e-01 1.239327e-02 0.000000e+00
7.018943e-01 5.443023e-03 0.000000e+00
4.720577e-01 8.796812e-04 0.000000e+00
4.669063e-01 4.991136e-03 0.000000e+00