# vtk DataFile Version 3.0
higtree
ASCII
DATASET UNSTRUCTURED_GRID
POINTS 10240 float
0.000000 0.000000 0
0.062500 0.000000 0
0.062500 0.062500 0
0.000000 0.062500 0
0.000000 0.062500 0
0.062500 0.062500 0
0.062500 0.125000 0
0.000000 0.125000 0
0.000000 0.125000 0
0.062500 0.125000 0
0.062500 0.187500 0
0.000000 0.187500 0
0.000000 0.187500 0
0.062500 0.187500 0
0.062500 0.250000 0
0.000000 0.250000 0
0.000000 0.250000 0
0.062500 0.250000 0
0.062500 0.312500 0
0.000000 0.312500 0
0.000000 0.312500 0
0.062500 0.312500 0
0.062500 0.375000 0
0.000000 0.375000 0
0.000000 0.375000 0
0.062500 0.375000 0
0.062500 0.437500 0
0.000000 0.437500 0
0.000000 0.437500 0
0.062500 0.437500 0
0.062500 0.500000 0
0.000000 0.500000 0
0.000000 0.500000 0
0.062500 0.500000 0
0.062500 0.562500 0
0.000000 0.562500 0
0.000000 0.562500 0
0.062500 0.562500 0
0.062500 0.625000 0
0.000000 0.625000 0
0.000000 0.625000 0
0.062500 0.625000 0
0.062500 0.687500 0
0.000000 0.687500 0
0.000000 0.687500 0
0.062500 0.687500 0
0.062500 0.750000 0
0.000000 0.750000 0
0.000000 0.750000 0
0.062500 0.750000 0
0.062500 0.812500 0
0.000000 0.812500 0
0.000000 0.812500 0
0.062500 0.812500 0
0.062500 0.875000 0
0.000000 0.875000 0
0.000000 0.875000 0
0.062500 0.875000 0
0.062500 0.937500 0
0.000000 0.937500 0
0.000000 0.937500 0
0.062500 0.937500 0
0.062500 1.000000 0
0.000000 1.000000 0
0.062500 0.000000 0
0.125000 0.000000 0
0.125000 0.062500 0
0.062500 0.062500 0
0.062500 0.062500 0
0.125000 0.062500 0
0.125000 0.125000 0
0.062500 0.125000 0
0.062500 0.125000 0
0.125000 0.125000 0
0.125000 0.187500 0
0.062500 0.187500 0
0.062500 0.187500 0
0.125000 0.187500 0
0.125000 0.250000 0
0.062500 0.250000 0
0.062500 0.250000 0
0.125000 0.250000 0
0.125000 0.312500 0
0.062500 0.312500 0
0.062500 0.312500 0
0.125000 0.312500 0
0.125000 0.375000 0
0.062500 0.375000 0
0.062500 0.375000 0
0.125000 0.375000 0
0.125000 0.437500 0
0.062500 0.437500 0
0.062500 0.437500 0
0.125000 0.437500 0
0.125000 0.500000 0
0.062500 0.500000 0
0.062500 0.500000 0
0.125000 0.500000 0
0.125000 0.562500 0
0.062500 0.562500 0
0.062500 0.562500 0
0.125000 0.562500 0
0.125000 0.625000 0
0.062500 0.625000 0
0.062500 0.625000 0
0.125000 0.625000 0
0.125000 0.687500 0
0.062500 0.687500 0
0.062500 0.687500 0
0.125000 0.687500 0
0.125000 0.750000 0
0.062500 0.750000 0
0.062500 0.750000 0
0.125000 0.750000 0
0.125000 0.812500 0
0.062500 0.812500 0
0.062500 0.812500 0
0.125000 0.812500 0
0.125000 0.875000 0
0.062500 0.875000 0
0.062500 0.875000 0
0.125000 0.875000 0
0.125000 0.937500 0
0.062500 0.937500 0
0.062500 0.937500 0
0.125000 0.937500 0
0.125000 1.000000 0
0.062500 1.000000 0
0.125000 0.000000 0
0.187500 0.000000 0
0.187500 0.062500 0
0.125000 0.062500 0
0.125000 0.062500 0
0.187500 0.062500 0
0.187500 0.125000 0
0.125000 0.125000 0
0.125000 0.125000 0
0.187500 0.125000 0
0.187500 0.187500 0
0.125000 0.187500 0
0.125000 0.187500 0
0.187500 0.187500 0
0.187500 0.250000 0
0.125000 0.250000 0
0.125000 0.250000 0
0.187500 0.250000 0
0.187500 0.312500 0
0.125000 0.312500 0
0.125000 0.312500 0
0.187500 0.312500 0
0.187500 0.375000 0
0.125000 0.375000 0
0.125000 0.375000 0
0.187500 0.375000 0
0.187500 0.437500 0
0.125000 0.437500 0
0.125000 0.437500 0
0.187500 0.437500 0
0.187500 0.500000 0
0.125000 0.500000 0
0.125000 0.500000 0
0.187500 0.500000 0
0.187500 0.562500 0
0.125000 0.562500 0
0.125000 0.562500 0
0.187500 0.562500 0
0.187500 0.625000 0
0.125000 0.625000 0
0.125000 0.625000 0
0.187500 0.625000 0
0.187500 0.687500 0
0.125000 0.687500 0
0.125000 0.687500 0
0.187500 0.687500 0
0.187500 0.750000 0
0.125000 0.750000 0
0.125000 0.750000 0
0.187500 0.750000 0
0.187500 0.812500 0
0.125000 0.812500 0
0.125000 0.812500 0
0.187500 0.812500 0
0.187500 0.875000 0
0.125000 0.875000 0
0.125000 0.875000 0
0.187500 0.875000 0
0.187500 0.937500 0
0.125000 0.937500 0
0.125000 0.937500 0
0.187500 0.937500 0
0.187500 1.000000 0
0.125000 1.000000 0
0.187500 0.000000 0
0.250000 0.000000 0
0.250000 0.062500 0
0.187500 0.062500 0
0.187500 0.062500 0
0.250000 0.062500 0
0.250000 0.125000 0
0.187500 0.125000 0
0.187500 0.125000 0
0.250000 0.125000 0
0.250000 0.187500 0
0.187500 0.187500 0
0.187500 0.187500 0
0.250000 0.187500 0
0.250000 0.250000 0
0.187500 0.250000 0
0.187500 0.250000 0
0.250000 0.250000 0
0.250000 0.312500 0
0.187500 0.312500 0
0.187500 0.312500 0
0.250000 0.312500 0
0.250000 0.375000 0
0.187500 0.375000 0
0.187500 0.375000 0
0.250000 0.375000 0
0.250000 0.437500 0
0.187500 0.437500 0
0.187500 0.437500 0
0.250000 0.437500 0
0.250000 0.500000 0
0.187500 0.500000 0
0.187500 0.500000 0
0.250000 0.500000 0
0.250000 0.562500 0
0.187500 0.562500 0
0.187500 0.562500 0
0.250000 0.562500 0
0.250000 0.625000 0
0.187500 0.625000 0
0.187500 0.625000 0
0.250000 0.625000 0
0.250000 0.687500 0
0.187500 0.687500 0
0.187500 0.687500 0
0.250000 0.687500 0
0.250000 0.750000 0
0.187500 0.750000 0
0.187500 0.750000 0
0.250000 0.750000 0
0.250000 0.812500 0
0.187500 0.812500 0
0.187500 0.812500 0
0.250000 0.812500 0
0.250000 0.875000 0
0.187500 0.875000 0
0.187500 0.875000 0
0.250000 0.875000 0
0.250000 0.937500 0
0.187500 0.937500 0
0.187500 0.937500 0
0.250000 0.937500 0
0.250000 1.000000 0
0.187500 1.000000 0
0.250000 0.000000 0
0.312500 0.000000 0
0.312500 0.062500 0
0.250000 0.062500 0
0.250000 0.062500 0
0.312500 0.062500 0
0.312500 0.125000 0
0.250000 0.125000 0
0.250000 0.125000 0
0.312500 0.125000 0
0.312500 0.187500 0
0.250000 0.187500 0
0.250000 0.187500 0
0.312500 0.187500 0
0.312500 0.250000 0
0.250000 0.250000 0
0.250000 0.250000 0
0.312500 0.250000 0
0.312500 0.312500 0
0.250000 0.312500 0
0.250000 0.312500 0
0.312500 0.312500 0
0.312500 0.375000 0
0.250000 0.375000 0
0.250000 0.375000 0
0.312500 0.375000 0
0.312500 0.437500 0
0.250000 0.437500 0
0.250000 0.437500 0
0.312500 0.437500 0
0.312500 0.500000 0
0.250000 0.500000 0
0.250000 0.500000 0
0.312500 0.500000 0
0.312500 0.562500 0
0.250000 0.562500 0
0.250000 0.562500 0
0.312500 0.562500 0
0.312500 0.625000 0
0.250000 0.625000 0
0.250000 0.625000 0
0.312500 0.625000 0
0.312500 0.687500 0
0.250000 0.687500 0
0.250000 0.687500 0
0.312500 0.687500 0
0.312500 0.750000 0
0.250000 0.750000 0
0.250000 0.750000 0
0.312500 0.750000 0
0.312500 0.812500 0
0.250000 0.812500 0
0.250000 0.812500 0
0.312500 0.812500 0
0.312500 0.875000 0
0.250000 0.875000 0
0.250000 0.875000 0
0.312500 0.875000 0
0.312500 0.937500 0
0.250000 0.937500 0
0.250000 0.937500 0
0.312500 0.937500 0
0.312500 1.000000 0
0.250000 1.000000 0
0.312500 0.000000 0
0.375000 0.000000 0
0.375000 0.062500 0
0.312500 0.062500 0
0.312500 0.062500 0
0.375000 0.062500 0
0.375000 0.125000 0
0.312500 0.125000 0
0.312500 0.125000 0
0.375000 0.125000 0
0.375000 0.187500 0
0.312500 0.187500 0
0.312500 0.187500 0
0.375000 0.187500 0
0.375000 0.250000 0
0.312500 0.250000 0
0.312500 0.250000 0
0.375000 0.250000 0
0.375000 0.312500 0
0.312500 0.312500 0
0.312500 0.312500 0
0.375000 0.312500 0
0.375000 0.375000 0
0.312500 0.375000 0
0.312500 0.375000 0
0.375000 0.375000 0
0.375000 0.437500 0
0.312500 0.437500 0
0.312500 0.437500 0
0.375000 0.437500 0
0.375000 0.500000 0
0.312500 0.500000 0
0.312500 0.500000 0
0.375000 0.500000 0
0.375000 0.562500 0
0.312500 0.562500 0
0.312500 0.562500 0
0.375000 0.562500 0
0.375000 0.625000 0
0.312500 0.625000 0
0.312500 0.625000 0
0.375000 0.625000 0
0.375000 0.687500 0
0.312500 0.687500 0
0.312500 0.687500 0
0.375000 0.687500 0
0.375000 0.750000 0
0.312500 0.750000 0
0.312500 0.750000 0
0.375000 0.750000 0
0.375000 0.812500 0
0.312500 0.812500 0
0.312500 0.812500 0
0.375000 0.812500 0
0.375000 0.875000 0
0.312500 0.875000 0
0.312500 0.875000 0
0.375000 0.875000 0
0.375000 0.937500 0
0.312500 0.937500 0
0.312500 0.937500 0
0.375000 0.937500 0
0.375000 1.000000 0
0.312500 1.000000 0
0.375000 0.000000 0
0.437500 0.000000 0
0.437500 0.062500 0
0.375000 0.062500 0
0.375000 0.062500 0
0.437500 0.062500 0
0.437500 0.125000 0
0.375000 0.125000 0
0.375000 0.125000 0
0.437500 0.125000 0
0.437500 0.187500 0
0.375000 0.187500 0
0.375000 0.187500 0
0.437500 0.187500 0
0.437500 0.250000 0
0.375000 0.250000 0
0.375000 0.250000 0
0.437500 0.250000 0
0.437500 0.312500 0
0.375000 0.312500 0
0.375000 0.312500 0
0.437500 0.312500 0
0.437500 0.375000 0
0.375000 0.375000 0
0.375000 0.375000 0
0.437500 0.375000 0
0.437500 0.437500 0
0.375000 0.437500 0
0.375000 0.437500 0
0.437500 0.437500 0
0.437500 0.500000 0
0.375000 0.500000 0
0.375000 0.500000 0
0.437500 0.500000 0
0.437500 0.562500 0
0.375000 0.562500 0
0.375000 0.562500 0
0.437500 0.562500 0
0.437500 0.625000 0
0.375000 0.625000 0
0.375000 0.625000 0
0.437500 0.625000 0
0.437500 0.687500 0
0.375000 0.687500 0
0.375000 0.687500 0
0.437500 0.687500 0
0.437500 0.750000 0
0.375000 0.750000 0
0.375000 0.750000 0
0.437500 0.750000 0
0.437500 0.812500 0
0.375000 0.812500 0
0.375000 0.812500 0
0.437500 0.812500 0
0.437500 0.875000 0
0.375000 0.875000 0
0.375000 0.875000 0
0.437500 0.875000 0
0.437500 0.937500 0
0.375000 0.937500 0
0.375000 0.937500 0
0.437500 0.937500 0
0.437500 1.000000 0
0.375000 1.000000 0
0.437500 0.000000 0
0.500000 0.000000 0
0.500000 0.062500 0
0.437500 0.062500 0
0.437500 0.062500 0
0.500000 0.062500 0
0.500000 0.125000 0
0.437500 0.125000 0
0.437500 0.125000 0
0.500000 0.125000 0
0.500000 0.187500 0
0.437500 0.187500 0
0.437500 0.187500 0
0.500000 0.187500 0
0.500000 0.250000 0
0.437500 0.250000 0
0.437500 0.250000 0
0.500000 0.250000 0
0.500000 0.312500 0
0.437500 0.312500 0
0.437500 0.312500 0
0.500000 0.312500 0
0.500000 0.375000 0
0.437500 0.375000 0
0.437500 0.375000 0
0.500000 0.375000 0
0.500000 0.437500 0
0.437500 0.437500 0
0.437500 0.437500 0
0.500000 0.437500 0
0.500000 0.500000 0
0.437500 0.500000 0
0.437500 0.500000 0
0.500000 0.500000 0
0.500000 0.562500 0
0.437500 0.562500 0
0.437500 0.562500 0
0.500000 0.562500 0
0.500000 0.625000 0
0.437500 0.625000 0
0.437500 0.625000 0
0.500000 0.625000 0
0.500000 0.687500 0
0.437500 0.687500 0
0.437500 0.687500 0
0.500000 0.687500 0
0.500000 0.750000 0
[...]
POINT_DATA 10240
VECTORS vel FLOAT
-8.668245e-04 2.183461e-03 0.000000e+00
6.286484e-03 -6.217525e-04 0.000000e+00
2.387129e-01 -1.173505e-02 0.000000e+00
2.337465e-01 -3.995127e-03 0.000000e+00
2.337465e-01 -3.995127e-03 0.000000e+00
2.387129e-01 -1.173505e-02 0.000000e+00
4.307711e-01 -9.292436e-03 0.000000e+00
4.361879e-01 -3.988894e-03 0.000000e+00
4.361879e-01 -3.988894e-03 0.000000e+00
4.307711e-01 -9.292436e-03 0.000000e+00
5.997822e-01 -7.908631e-05 0.000000e+00
6.078395e-01 -2.163384e-03 0.000000e+00
6.078395e-01 -2.163384e-03 0.000000e+00
5.997822e-01 -7.908631e-05 0.000000e+00
7.435489e-01 7.167391e-03 0.000000e+00
7.491514e-01 -5.664607e-04 0.000000e+00
7.491514e-01 -5.664607e-04 0.000000e+00
7.435489e-01 7.167391e-03 0.000000e+00
8.579677e-01 9.398522e-03 0.000000e+00
8.592260e-01 1.768744e-04 0.000000e+00
8.592260e-01 1.768744e-04 0.000000e+00
8.579677e-01 9.398522e-03 0.000000e+00
9.388331e-01 7.175344e-03 0.000000e+00
9.380074e-01 7.537993e-05 0.000000e+00
9.380074e-01 7.537993e-05 0.000000e+00
9.388331e-01 7.175344e-03 0.000000e+00
9.860257e-01 3.527362e-03 0.000000e+00
9.848909e-01 -8.234708e-05 0.000000e+00
9.848909e-01 -8.234708e-05 0.000000e+00
9.860257e-01 3.527362e-03 0.000000e+00
1.001411e+00 4.485261e-05 0.000000e+00
1.000450e+00 3.928773e-06 0.000000e+00
1.000450e+00 3.928773e-06 0.000000e+00
1.001411e+00 4.485261e-05 0.000000e+00
9.860491e-01 -3.443866e-03 0.000000e+00
9.849264e-01 8.941691e-05 0.000000e+00
9.849264e-01 8.941691e-05 0.000000e+00
9.860491e-01 -3.443866e-03 0.000000e+00
9.389038e-01 -7.122537e-03 0.000000e+00
9.380397e-01 -7.199460e-05 0.000000e+00
9.380397e-01 -7.199460e-05 0.000000e+00
9.389038e-01 -7.122537e-03 0.000000e+00
8.580958e-01 -9.390293e-03 0.000000e+00
8.592307e-01 -1.817217e-04 0.000000e+00
8.592307e-01 -1.817217e-04 0.000000e+00
8.580958e-01 -9.390293e-03 0.000000e+00
7.435767e-01 -7.206969e-03 0.000000e+00
7.490321e-01 5.525621e-04 0.000000e+00
7.490321e-01 5.525621e-04 0.000000e+00
7.435767e-01 -7.206969e-03 0.000000e+00
5.997736e-01 2.621714e-05 0.000000e+00
6.078382e-01 2.150391e-03 0.000000e+00
6.078382e-01 2.150391e-03 0.000000e+00
5.997736e-01 2.621714e-05 0.000000e+00
4.307456e-01 9.252166e-03 0.000000e+00
4.361851e-01 3.980180e-03 0.000000e+00
4.361851e-01 3.980180e-03 0.000000e+00
4.307456e-01 9.252166e-03 0.000000e+00
2.386897e-01 1.171453e-02 0.000000e+00
2.337451e-01 3.994046e-03 0.000000e+00
2.337451e-01 3.994046e-03 0.000000e+00
2.386897e-01 1.171453e-02 0.000000e+00
6.287743e-03 6.215467e-04 0.000000e+00
-8.552365e-04 -2.173122e-03 0.000000e+00
6.286484e-03 -6.217525e-04 0.000000e+00
1.055798e-02 -2.650315e-04 0.000000e+00
2.404511e-01 -7.160297e-03 0.000000e+00
2.387129e-01 -1.173505e-02 0.000000e+00
2.387129e-01 -1.173505e-02 0.000000e+00
2.404511e-01 -7.160297e-03 0.000000e+00
4.206614e-01 5.246200e-04 0.000000e+00
4.307711e-01 -9.292436e-03 0.000000e+00
4.307711e-01 -9.292436e-03 0.000000e+00
4.206614e-01 5.246200e-04 0.000000e+00
5.882765e-01 1.380658e-02 0.000000e+00
5.997822e-01 -7.908631e-05 0.000000e+00
5.997822e-01 -7.908631e-05 0.000000e+00
5.882765e-01 1.380658e-02 0.000000e+00
7.385809e-01 2.244129e-02 0.000000e+00
7.435489e-01 7.167391e-03 0.000000e+00
7.435489e-01 7.167391e-03 0.000000e+00
7.385809e-01 2.244129e-02 0.000000e+00
8.598079e-01 2.190802e-02 0.000000e+00
8.579677e-01 9.398522e-03 0.000000e+00
8.579677e-01 9.398522e-03 0.000000e+00
8.598079e-01 2.190802e-02 0.000000e+00
9.438886e-01 1.554856e-02 0.000000e+00
9.388331e-01 7.175344e-03 0.000000e+00
9.388331e-01 7.175344e-03 0.000000e+00
9.438886e-01 1.554856e-02 0.000000e+00
9.914077e-01 7.631808e-03 0.000000e+00
9.860257e-01 3.527362e-03 0.000000e+00
9.860257e-01 3.527362e-03 0.000000e+00
9.914077e-01 7.631808e-03 0.000000e+00
1.006503e+00 2.317733e-05 0.000000e+00
1.001411e+00 4.485261e-05 0.000000e+00
1.001411e+00 4.485261e-05 0.000000e+00
1.006503e+00 2.317733e-05 0.000000e+00
9.913870e-01 -7.578307e-03 0.000000e+00
9.860491e-01 -3.443866e-03 0.000000e+00
9.860491e-01 -3.443866e-03 0.000000e+00
9.913870e-01 -7.578307e-03 0.000000e+00
9.438996e-01 -1.548099e-02 0.000000e+00
9.389038e-01 -7.122537e-03 0.000000e+00
9.389038e-01 -7.122537e-03 0.000000e+00
9.438996e-01 -1.548099e-02 0.000000e+00
8.599097e-01 -2.180894e-02 0.000000e+00
8.580958e-01 -9.390293e-03 0.000000e+00
8.580958e-01 -9.390293e-03 0.000000e+00
8.599097e-01 -2.180894e-02 0.000000e+00
7.387799e-01 -2.245649e-02 0.000000e+00
7.435767e-01 -7.206969e-03 0.000000e+00
7.435767e-01 -7.206969e-03 0.000000e+00
7.387799e-01 -2.245649e-02 0.000000e+00
5.882718e-01 -1.384286e-02 0.000000e+00
5.997736e-01 2.621714e-05 0.000000e+00
5.997736e-01 2.621714e-05 0.000000e+00
5.882718e-01 -1.384286e-02 0.000000e+00
4.206202e-01 -5.608821e-04 0.000000e+00
4.307456e-01 9.252166e-03 0.000000e+00
4.307456e-01 9.252166e-03 0.000000e+00
4.206202e-01 -5.608821e-04 0.000000e+00
2.404091e-01 7.140067e-03 0.000000e+00
2.386897e-01 1.171453e-02 0.000000e+00
2.386897e-01 1.171453e-02 0.000000e+00
2.404091e-01 7.140067e-03 0.000000e+00
1.055282e-02 2.643091e-04 0.000000e+00
6.287743e-03 6.215467e-04 0.000000e+00
1.055798e-02 -2.650315e-04 0.000000e+00
1.261185e-02 3.124889e-04 0.000000e+00
2.356093e-01 7.560246e-04 0.000000e+00
2.404511e-01 -7.160297e-03 0.000000e+00
2.404511e-01 -7.160297e-03 0.000000e+00
2.356093e-01 7.560246e-04 0.000000e+00
4.066890e-01 1.279476e-02 0.000000e+00
4.206614e-01 5.246200e-04 0.000000e+00
4.206614e-01 5.246200e-04 0.000000e+00
4.066890e-01 1.279476e-02 0.000000e+00
5.763237e-01 2.728382e-02 0.000000e+00
5.882765e-01 1.380658e-02 0.000000e+00
5.882765e-01 1.380658e-02 0.000000e+00
5.763237e-01 2.728382e-02 0.000000e+00
7.355348e-01 3.374997e-02 0.000000e+00
7.385809e-01 2.244129e-02 0.000000e+00
7.385809e-01 2.244129e-02 0.000000e+00
7.355348e-01 3.374997e-02 0.000000e+00
8.651796e-01 3.021584e-02 0.000000e+00
8.598079e-01 2.190802e-02 0.000000e+00
8.598079e-01 2.190802e-02 0.000000e+00
8.651796e-01 3.021584e-02 0.000000e+00
9.530826e-01 2.087522e-02 0.000000e+00
9.438886e-01 1.554856e-02 0.000000e+00
9.438886e-01 1.554856e-02 0.000000e+00
9.530826e-01 2.087522e-02 0.000000e+00
1.000896e+00 1.024666e-02 0.000000e+00
9.914077e-01 7.631808e-03 0.000000e+00
9.914077e-01 7.631808e-03 0.000000e+00
1.000896e+00 1.024666e-02 0.000000e+00
1.015692e+00 4.224197e-05 0.000000e+00
1.006503e+00 2.317733e-05 0.000000e+00
1.006503e+00 2.317733e-05 0.000000e+00
1.015692e+00 4.224197e-05 0.000000e+00
1.000933e+00 -1.016425e-02 0.000000e+00
9.913870e-01 -7.578307e-03 0.000000e+00
9.913870e-01 -7.578307e-03 0.000000e+00
1.000933e+00 -1.016425e-02 0.000000e+00
9.532236e-01 -2.080833e-02 0.000000e+00
9.438996e-01 -1.548099e-02 0.000000e+00
9.438996e-01 -1.548099e-02 0.000000e+00
9.532236e-01 -2.080833e-02 0.000000e+00
8.653991e-01 -3.019668e-02 0.000000e+00
8.599097e-01 -2.180894e-02 0.000000e+00
8.599097e-01 -2.180894e-02 0.000000e+00
8.653991e-01 -3.019668e-02 0.000000e+00
7.357882e-01 -3.372407e-02 0.000000e+00
7.387799e-01 -2.245649e-02 0.000000e+00
7.387799e-01 -2.245649e-02 0.000000e+00
7.357882e-01 -3.372407e-02 0.000000e+00
5.763333e-01 -2.727064e-02 0.000000e+00
5.882718e-01 -1.384286e-02 0.000000e+00
5.882718e-01 -1.384286e-02 0.000000e+00
5.763333e-01 -2.727064e-02 0.000000e+00
4.066448e-01 -1.279481e-02 0.000000e+00
4.206202e-01 -5.608821e-04 0.000000e+00
4.206202e-01 -5.608821e-04 0.000000e+00
4.066448e-01 -1.279481e-02 0.000000e+00
2.355540e-01 -7.555369e-04 0.000000e+00
2.404091e-01 7.140067e-03 0.000000e+00
2.404091e-01 7.140067e-03 0.000000e+00
2.355540e-01 -7.555369e-04 0.000000e+00
1.260455e-02 -3.119586e-04 0.000000e+00
1.055282e-02 2.643091e-04 0.000000e+00
1.261185e-02 3.124889e-04 0.000000e+00
1.274969e-02 7.632407e-04 0.000000e+00
2.262114e-01 5.891023e-03 0.000000e+00
2.356093e-01 7.560246e-04 0.000000e+00
2.356093e-01 7.560246e-04 0.000000e+00
2.262114e-01 5.891023e-03 0.000000e+00
3.922324e-01 1.761289e-02 0.000000e+00
4.066890e-01 1.279476e-02 0.000000e+00
4.066890e-01 1.279476e-02 0.000000e+00
3.922324e-01 1.761289e-02 0.000000e+00
5.667803e-01 2.904137e-02 0.000000e+00
5.763237e-01 2.728382e-02 0.000000e+00
5.763237e-01 2.728382e-02 0.000000e+00
5.667803e-01 2.904137e-02 0.000000e+00
7.358413e-01 3.230722e-02 0.000000e+00
7.355348e-01 3.374997e-02 0.000000e+00
7.355348e-01 3.374997e-02 0.000000e+00
7.358413e-01 3.230722e-02 0.000000e+00
8.729834e-01 2.760729e-02 0.000000e+00
8.651796e-01 3.021584e-02 0.000000e+00
8.651796e-01 3.021584e-02 0.000000e+00
8.729834e-01 2.760729e-02 0.000000e+00
9.637894e-01 1.874113e-02 0.000000e+00
9.530826e-01 2.087522e-02 0.000000e+00
9.530826e-01 2.087522e-02 0.000000e+00
9.637894e-01 1.874113e-02 0.000000e+00
1.011624e+00 9.138521e-03 0.000000e+00
1.000896e+00 1.024666e-02 0.000000e+00
1.000896e+00 1.024666e-02 0.000000e+00
1.011624e+00 9.138521e-03 0.000000e+00
1.026108e+00 -5.954579e-05 0.000000e+00
1.015692e+00 4.224197e-05 0.000000e+00
1.015692e+00 4.224197e-05 0.000000e+00
1.026108e+00 -5.954579e-05 0.000000e+00
1.011701e+00 -9.257627e-03 0.000000e+00
1.000933e+00 -1.016425e-02 0.000000e+00
1.000933e+00 -1.016425e-02 0.000000e+00
1.011701e+00 -9.257627e-03 0.000000e+00
9.639144e-01 -1.884836e-02 0.000000e+00
9.532236e-01 -2.080833e-02 0.000000e+00
9.532236e-01 -2.080833e-02 0.000000e+00
9.639144e-01 -1.884836e-02 0.000000e+00
8.729739e-01 -2.768629e-02 0.000000e+00
8.653991e-01 -3.019668e-02 0.000000e+00
8.653991e-01 -3.019668e-02 0.000000e+00
8.729739e-01 -2.768629e-02 0.000000e+00
7.355432e-01 -3.232358e-02 0.000000e+00
7.357882e-01 -3.372407e-02 0.000000e+00
7.357882e-01 -3.372407e-02 0.000000e+00
7.355432e-01 -3.232358e-02 0.000000e+00
5.668026e-01 -2.898666e-02 0.000000e+00
5.763333e-01 -2.727064e-02 0.000000e+00
5.763333e-01 -2.727064e-02 0.000000e+00
5.668026e-01 -2.898666e-02 0.000000e+00
3.922031e-01 -1.751871e-02 0.000000e+00
4.066448e-01 -1.279481e-02 0.000000e+00
4.066448e-01 -1.279481e-02 0.000000e+00
3.922031e-01 -1.751871e-02 0.000000e+00
2.261668e-01 -5.871014e-03 0.000000e+00
2.355540e-01 -7.555369e-04 0.000000e+00
2.355540e-01 -7.555369e-04 0.000000e+00
2.261668e-01 -5.871014e-03 0.000000e+00
1.274514e-02 -7.611333e-04 0.000000e+00
1.260455e-02 -3.119586e-04 0.000000e+00
1.274969e-02 7.632407e-04 0.000000e+00
1.234763e-02 6.016469e-04 0.000000e+00
2.177928e-01 4.501213e-03 0.000000e+00
2.262114e-01 5.891023e-03 0.000000e+00
2.262114e-01 5.891023e-03 0.000000e+00
2.177928e-01 4.501213e-03 0.000000e+00
3.818986e-01 1.147648e-02 0.000000e+00
3.922324e-01 1.761289e-02 0.000000e+00
3.922324e-01 1.761289e-02 0.000000e+00
3.818986e-01 1.147648e-02 0.000000e+00
5.609480e-01 1.800874e-02 0.000000e+00
5.667803e-01 2.904137e-02 0.000000e+00
5.667803e-01 2.904137e-02 0.000000e+00
5.609480e-01 1.800874e-02 0.000000e+00
7.371129e-01 1.921186e-02 0.000000e+00
7.358413e-01 3.230722e-02 0.000000e+00
7.358413e-01 3.230722e-02 0.000000e+00
7.371129e-01 1.921186e-02 0.000000e+00
8.791666e-01 1.582064e-02 0.000000e+00
8.729834e-01 2.760729e-02 0.000000e+00
8.729834e-01 2.760729e-02 0.000000e+00
8.791666e-01 1.582064e-02 0.000000e+00
9.716854e-01 1.038284e-02 0.000000e+00
9.637894e-01 1.874113e-02 0.000000e+00
9.637894e-01 1.874113e-02 0.000000e+00
9.716854e-01 1.038284e-02 0.000000e+00
1.019362e+00 4.952248e-03 0.000000e+00
1.011624e+00 9.138521e-03 0.000000e+00
1.011624e+00 9.138521e-03 0.000000e+00
1.019362e+00 4.952248e-03 0.000000e+00
1.033572e+00 3.745459e-06 0.000000e+00
1.026108e+00 -5.954579e-05 0.000000e+00
1.026108e+00 -5.954579e-05 0.000000e+00
1.033572e+00 3.745459e-06 0.000000e+00
1.019425e+00 -4.946666e-03 0.000000e+00
1.011701e+00 -9.257627e-03 0.000000e+00
1.011701e+00 -9.257627e-03 0.000000e+00
1.019425e+00 -4.946666e-03 0.000000e+00
9.717822e-01 -1.036642e-02 0.000000e+00
9.639144e-01 -1.884836e-02 0.000000e+00
9.639144e-01 -1.884836e-02 0.000000e+00
9.717822e-01 -1.036642e-02 0.000000e+00
8.791526e-01 -1.578181e-02 0.000000e+00
8.729739e-01 -2.768629e-02 0.000000e+00
8.729739e-01 -2.768629e-02 0.000000e+00
8.791526e-01 -1.578181e-02 0.000000e+00
7.368166e-01 -1.919870e-02 0.000000e+00
7.355432e-01 -3.232358e-02 0.000000e+00
7.355432e-01 -3.232358e-02 0.000000e+00
7.368166e-01 -1.919870e-02 0.000000e+00
5.609728e-01 -1.795650e-02 0.000000e+00
5.668026e-01 -2.898666e-02 0.000000e+00
5.668026e-01 -2.898666e-02 0.000000e+00
5.609728e-01 -1.795650e-02 0.000000e+00
3.818874e-01 -1.143115e-02 0.000000e+00
3.922031e-01 -1.751871e-02 0.000000e+00
3.922031e-01 -1.751871e-02 0.000000e+00
3.818874e-01 -1.143115e-02 0.000000e+00
2.177709e-01 -4.475933e-03 0.000000e+00
2.261668e-01 -5.871014e-03 0.000000e+00
2.261668e-01 -5.871014e-03 0.000000e+00
2.177709e-01 -4.475933e-03 0.000000e+00
1.234825e-02 -5.992638e-04 0.000000e+00
1.274514e-02 -7.611333e-04 0.000000e+00
1.234763e-02 6.016469e-04 0.000000e+00
1.254988e-02 -8.000633e-05 0.000000e+00
2.143279e-01 -4.543428e-04 0.000000e+00
2.177928e-01 4.501213e-03 0.000000e+00
2.177928e-01 4.501213e-03 0.000000e+00
2.143279e-01 -4.543428e-04 0.000000e+00
3.774326e-01 9.047909e-04 0.000000e+00
3.818986e-01 1.147648e-02 0.000000e+00
3.818986e-01 1.147648e-02 0.000000e+00
3.774326e-01 9.047909e-04 0.000000e+00
5.585181e-01 2.896857e-03 0.000000e+00
5.609480e-01 1.800874e-02 0.000000e+00
5.609480e-01 1.800874e-02 0.000000e+00
5.585181e-01 2.896857e-03 0.000000e+00
7.380047e-01 3.039706e-03 0.000000e+00
7.371129e-01 1.921186e-02 0.000000e+00
7.371129e-01 1.921186e-02 0.000000e+00
7.380047e-01 3.039706e-03 0.000000e+00
8.820271e-01 1.752097e-03 0.000000e+00
8.791666e-01 1.582064e-02 0.000000e+00
8.791666e-01 1.582064e-02 0.000000e+00
8.820271e-01 1.752097e-03 0.000000e+00
9.747601e-01 3.898546e-04 0.000000e+00
9.716854e-01 1.038284e-02 0.000000e+00
9.716854e-01 1.038284e-02 0.000000e+00
9.747601e-01 3.898546e-04 0.000000e+00
1.021861e+00 -1.553645e-04 0.000000e+00
1.019362e+00 4.952248e-03 0.000000e+00
1.019362e+00 4.952248e-03 0.000000e+00
1.021861e+00 -1.553645e-04 0.000000e+00
1.035752e+00 5.710011e-05 0.000000e+00
1.033572e+00 3.745459e-06 0.000000e+00
1.033572e+00 3.745459e-06 0.000000e+00
1.035752e+00 5.710011e-05 0.000000e+00
1.021924e+00 2.630946e-04 0.000000e+00
1.019425e+00 -4.946666e-03 0.000000e+00
1.019425e+00 -4.946666e-03 0.000000e+00
1.021924e+00 2.630946e-04 0.000000e+00
9.748529e-01 -2.921548e-04 0.000000e+00
9.717822e-01 -1.036642e-02 0.000000e+00
9.717822e-01 -1.036642e-02 0.000000e+00
9.748529e-01 -2.921548e-04 0.000000e+00
8.820506e-01 -1.664741e-03 0.000000e+00
8.791526e-01 -1.578181e-02 0.000000e+00
8.791526e-01 -1.578181e-02 0.000000e+00
8.820506e-01 -1.664741e-03 0.000000e+00
7.377904e-01 -3.011474e-03 0.000000e+00
7.368166e-01 -1.919870e-02 0.000000e+00
7.368166e-01 -1.919870e-02 0.000000e+00
7.377904e-01 -3.011474e-03 0.000000e+00
5.585452e-01 -2.865514e-03 0.000000e+00
5.609728e-01 -1.795650e-02 0.000000e+00
5.609728e-01 -1.795650e-02 0.000000e+00
5.585452e-01 -2.865514e-03 0.000000e+00
3.774301e-01 -8.742527e-04 0.000000e+00
3.818874e-01 -1.143115e-02 0.000000e+00
3.818874e-01 -1.143115e-02 0.000000e+00
3.774301e-01 -8.742527e-04 0.000000e+00
2.143233e-01 4.756033e-04 0.000000e+00
2.177709e-01 -4.475933e-03 0.000000e+00
2.177709e-01 -4.475933e-03 0.000000e+00
2.143233e-01 4.756033e-04 0.000000e+00
1.255571e-02 8.178298e-05 0.000000e+00
1.234825e-02 -5.992638e-04 0.000000e+00
1.254988e-02 -8.000633e-05 0.000000e+00
1.364835e-02 -5.937024e-04 0.000000e+00
2.155040e-01 -4.282646e-03 0.000000e+00
2.143279e-01 -4.543428e-04 0.000000e+00
2.143279e-01 -4.543428e-04 0.000000e+00
2.155040e-01 -4.282646e-03 0.000000e+00
3.773019e-01 -6.225597e-03 0.000000e+00
3.774326e-01 9.047909e-04 0.000000e+00
3.774326e-01 9.047909e-04 0.000000e+00
3.773019e-01 -6.225597e-03 0.000000e+00
5.583320e-01 -7.006272e-03 0.000000e+00
5.585181e-01 2.896857e-03 0.000000e+00
5.585181e-01 2.896857e-03 0.000000e+00
5.583320e-01 -7.006272e-03 0.000000e+00
7.382787e-01 -7.464481e-03 0.000000e+00
7.380047e-01 3.039706e-03 0.000000e+00
7.380047e-01 3.039706e-03 0.000000e+00
7.382787e-01 -7.464481e-03 0.000000e+00
8.821552e-01 -7.449610e-03 0.000000e+00
8.820271e-01 1.752097e-03 0.000000e+00
8.820271e-01 1.752097e-03 0.000000e+00
8.821552e-01 -7.449610e-03 0.000000e+00
9.739251e-01 -6.293586e-03 0.000000e+00
9.747601e-01 3.898546e-04 0.000000e+00
9.747601e-01 3.898546e-04 0.000000e+00
9.739251e-01 -6.293586e-03 0.000000e+00
1.019891e+00 -3.648390e-03 0.000000e+00
1.021861e+00 -1.553645e-04 0.000000e+00
1.021861e+00 -1.553645e-04 0.000000e+00
1.019891e+00 -3.648390e-03 0.000000e+00
1.033276e+00 6.644372e-05 0.000000e+00
1.035752e+00 5.710011e-05 0.000000e+00
1.035752e+00 5.710011e-05 0.000000e+00
1.033276e+00 6.644372e-05 0.000000e+00
1.019967e+00 3.772234e-03 0.000000e+00
1.021924e+00 2.630946e-04 0.000000e+00
1.021924e+00 2.630946e-04 0.000000e+00
1.019967e+00 3.772234e-03 0.000000e+00
9.740430e-01 6.393988e-03 0.000000e+00
9.748529e-01 -2.921548e-04 0.000000e+00
9.748529e-01 -2.921548e-04 0.000000e+00
9.740430e-01 6.393988e-03 0.000000e+00
8.822314e-01 7.519611e-03 0.000000e+00
8.820506e-01 -1.664741e-03 0.000000e+00
8.820506e-01 -1.664741e-03 0.000000e+00
8.822314e-01 7.519611e-03 0.000000e+00
7.381525e-01 7.481894e-03 0.000000e+00
7.377904e-01 -3.011474e-03 0.000000e+00
7.377904e-01 -3.011474e-03 0.000000e+00
7.381525e-01 7.481894e-03 0.000000e+00
5.583599e-01 7.022194e-03 0.000000e+00
5.585452e-01 -2.865514e-03 0.000000e+00
5.585452e-01 -2.865514e-03 0.000000e+00
5.583599e-01 7.022194e-03 0.000000e+00
3.773015e-01 6.242774e-03 0.000000e+00
3.774301e-01 -8.742527e-04 0.000000e+00
3.774301e-01 -8.742527e-04 0.000000e+00
3.773015e-01 6.242774e-03 0.000000e+00
2.155091e-01 4.295546e-03 0.000000e+00
2.143233e-01 4.756033e-04 0.000000e+00
2.143233e-01 4.756033e-04 0.000000e+00
2.155091e-01 4.295546e-03 0.000000e+00
1.365792e-02 5.941405e-04 0.000000e+00
1.255571e-02 8.178298e-05 0.000000e+00
1.364835e-02 -5.937024e-04 0.000000e+00
1.503922e-02 -6.742305e-04 0.000000e+00
2.187335e-01 -5.073815e-03 0.000000e+00
2.155040e-01 -4.282646e-03 0.000000e+00
2.155040e-01 -4.282646e-03 0.000000e+00
2.187335e-01 -5.073815e-03 0.000000e+00
3.791842e-01 -7.838387e-03 0.000000e+00
3.773019e-01 -6.225597e-03 0.000000e+00
3.773019e-01 -6.225597e-03 0.000000e+00
3.791842e-01 -7.838387e-03 0.000000e+00
5.593940e-01 -9.703692e-03 0.000000e+00
5.583320e-01 -7.006272e-03 0.000000e+00
5.583320e-01 -7.006272e-03 0.000000e+00
5.593940e-01 -9.703692e-03 0.000000e+00
7.384860e-01 -1.058614e-02 0.000000e+00
7.382787e-01 -7.464481e-03 0.000000e+00
7.382787e-01 -7.464481e-03 0.000000e+00
7.384860e-01 -1.058614e-02 0.000000e+00
8.811807e-01 -1.031604e-02 0.000000e+00
8.821552e-01 -7.449610e-03 0.000000e+00
8.821552e-01 -7.449610e-03 0.000000e+00
8.811807e-01 -1.031604e-02 0.000000e+00
9.713093e-01 -8.421415e-03 0.000000e+00
9.739251e-01 -6.293586e-03 0.000000e+00
9.739251e-01 -6.293586e-03 0.000000e+00
9.713093e-01 -8.421415e-03 0.000000e+00
1.015779e+00 -4.763918e-03 0.000000e+00
1.019891e+00 -3.648390e-03 0.000000e+00
1.019891e+00 -3.648390e-03 0.000000e+00
1.015779e+00 -4.763918e-03 0.000000e+00
1.028566e+00 4.142616e-05 0.000000e+00
1.033276e+00 6.644372e-05 0.000000e+00
1.033276e+00 6.644372e-05 0.000000e+00
1.028566e+00 4.142616e-05 0.000000e+00
1.015872e+00 4.838403e-03 0.000000e+00
1.019967e+00 3.772234e-03 0.000000e+00
1.019967e+00 3.772234e-03 0.000000e+00
1.015872e+00 4.838403e-03 0.000000e+00
9.714537e-01 8.474706e-03 0.000000e+00
9.740430e-01 6.393988e-03 0.000000e+00
9.740430e-01 6.393988e-03 0.000000e+00
9.714537e-01 8.474706e-03 0.000000e+00
8.812958e-01 1.034640e-02 0.000000e+00
8.822314e-01 7.519611e-03 0.000000e+00
8.822314e-01 7.519611e-03 0.000000e+00
8.812958e-01 1.034640e-02 0.000000e+00
7.384158e-01 1.058616e-02 0.000000e+00
7.381525e-01 7.481894e-03 0.000000e+00
7.381525e-01 7.481894e-03 0.000000e+00
7.384158e-01 1.058616e-02 0.000000e+00
5.594202e-01 9.713120e-03 0.000000e+00
5.583599e-01 7.022194e-03 0.000000e+00
5.583599e-01 7.022194e-03 0.000000e+00
5.594202e-01 9.713120e-03 0.000000e+00
3.791855e-01 7.848276e-03 0.000000e+00
3.773015e-01 6.242774e-03 0.000000e+00
3.773015e-01 6.242774e-03 0.000000e+00