# vtk DataFile Version 3.0
higtree
ASCII
DATASET UNSTRUCTURED_GRID
POINTS 10240 float
0.000000 0.000000 0
0.062500 0.000000 0
0.062500 0.062500 0
0.000000 0.062500 0
0.000000 0.062500 0
0.062500 0.062500 0
0.062500 0.125000 0
0.000000 0.125000 0
0.000000 0.125000 0
0.062500 0.125000 0
0.062500 0.187500 0
0.000000 0.187500 0
0.000000 0.187500 0
0.062500 0.187500 0
0.062500 0.250000 0
0.000000 0.250000 0
0.000000 0.250000 0
0.062500 0.250000 0
0.062500 0.312500 0
0.000000 0.312500 0
0.000000 0.312500 0
0.062500 0.312500 0
0.062500 0.375000 0
0.000000 0.375000 0
0.000000 0.375000 0
0.062500 0.375000 0
0.062500 0.437500 0
0.000000 0.437500 0
0.000000 0.437500 0
0.062500 0.437500 0
0.062500 0.500000 0
0.000000 0.500000 0
0.000000 0.500000 0
0.062500 0.500000 0
0.062500 0.562500 0
0.000000 0.562500 0
0.000000 0.562500 0
0.062500 0.562500 0
0.062500 0.625000 0
0.000000 0.625000 0
0.000000 0.625000 0
0.062500 0.625000 0
0.062500 0.687500 0
0.000000 0.687500 0
0.000000 0.687500 0
0.062500 0.687500 0
0.062500 0.750000 0
0.000000 0.750000 0
0.000000 0.750000 0
0.062500 0.750000 0
0.062500 0.812500 0
0.000000 0.812500 0
0.000000 0.812500 0
0.062500 0.812500 0
0.062500 0.875000 0
0.000000 0.875000 0
0.000000 0.875000 0
0.062500 0.875000 0
0.062500 0.937500 0
0.000000 0.937500 0
0.000000 0.937500 0
0.062500 0.937500 0
0.062500 1.000000 0
0.000000 1.000000 0
0.062500 0.000000 0
0.125000 0.000000 0
0.125000 0.062500 0
0.062500 0.062500 0
0.062500 0.062500 0
0.125000 0.062500 0
0.125000 0.125000 0
0.062500 0.125000 0
0.062500 0.125000 0
0.125000 0.125000 0
0.125000 0.187500 0
0.062500 0.187500 0
0.062500 0.187500 0
0.125000 0.187500 0
0.125000 0.250000 0
0.062500 0.250000 0
0.062500 0.250000 0
0.125000 0.250000 0
0.125000 0.312500 0
0.062500 0.312500 0
0.062500 0.312500 0
0.125000 0.312500 0
0.125000 0.375000 0
0.062500 0.375000 0
0.062500 0.375000 0
0.125000 0.375000 0
0.125000 0.437500 0
0.062500 0.437500 0
0.062500 0.437500 0
0.125000 0.437500 0
0.125000 0.500000 0
0.062500 0.500000 0
0.062500 0.500000 0
0.125000 0.500000 0
0.125000 0.562500 0
0.062500 0.562500 0
0.062500 0.562500 0
0.125000 0.562500 0
0.125000 0.625000 0
0.062500 0.625000 0
0.062500 0.625000 0
0.125000 0.625000 0
0.125000 0.687500 0
0.062500 0.687500 0
0.062500 0.687500 0
0.125000 0.687500 0
0.125000 0.750000 0
0.062500 0.750000 0
0.062500 0.750000 0
0.125000 0.750000 0
0.125000 0.812500 0
0.062500 0.812500 0
0.062500 0.812500 0
0.125000 0.812500 0
0.125000 0.875000 0
0.062500 0.875000 0
0.062500 0.875000 0
0.125000 0.875000 0
0.125000 0.937500 0
0.062500 0.937500 0
0.062500 0.937500 0
0.125000 0.937500 0
0.125000 1.000000 0
0.062500 1.000000 0
0.125000 0.000000 0
0.187500 0.000000 0
0.187500 0.062500 0
0.125000 0.062500 0
0.125000 0.062500 0
0.187500 0.062500 0
0.187500 0.125000 0
0.125000 0.125000 0
0.125000 0.125000 0
0.187500 0.125000 0
0.187500 0.187500 0
0.125000 0.187500 0
0.125000 0.187500 0
0.187500 0.187500 0
0.187500 0.250000 0
0.125000 0.250000 0
0.125000 0.250000 0
0.187500 0.250000 0
0.187500 0.312500 0
0.125000 0.312500 0
0.125000 0.312500 0
0.187500 0.312500 0
0.187500 0.375000 0
0.125000 0.375000 0
0.125000 0.375000 0
0.187500 0.375000 0
0.187500 0.437500 0
0.125000 0.437500 0
0.125000 0.437500 0
0.187500 0.437500 0
0.187500 0.500000 0
0.125000 0.500000 0
0.125000 0.500000 0
0.187500 0.500000 0
0.187500 0.562500 0
0.125000 0.562500 0
0.125000 0.562500 0
0.187500 0.562500 0
0.187500 0.625000 0
0.125000 0.625000 0
0.125000 0.625000 0
0.187500 0.625000 0
0.187500 0.687500 0
0.125000 0.687500 0
0.125000 0.687500 0
0.187500 0.687500 0
0.187500 0.750000 0
0.125000 0.750000 0
0.125000 0.750000 0
0.187500 0.750000 0
0.187500 0.812500 0
0.125000 0.812500 0
0.125000 0.812500 0
0.187500 0.812500 0
0.187500 0.875000 0
0.125000 0.875000 0
0.125000 0.875000 0
0.187500 0.875000 0
0.187500 0.937500 0
0.125000 0.937500 0
0.125000 0.937500 0
0.187500 0.937500 0
0.187500 1.000000 0
0.125000 1.000000 0
0.187500 0.000000 0
0.250000 0.000000 0
0.250000 0.062500 0
0.187500 0.062500 0
0.187500 0.062500 0
0.250000 0.062500 0
0.250000 0.125000 0
0.187500 0.125000 0
0.187500 0.125000 0
0.250000 0.125000 0
0.250000 0.187500 0
0.187500 0.187500 0
0.187500 0.187500 0
0.250000 0.187500 0
0.250000 0.250000 0
0.187500 0.250000 0
0.187500 0.250000 0
0.250000 0.250000 0
0.250000 0.312500 0
0.187500 0.312500 0
0.187500 0.312500 0
0.250000 0.312500 0
0.250000 0.375000 0
0.187500 0.375000 0
0.187500 0.375000 0
0.250000 0.375000 0
0.250000 0.437500 0
0.187500 0.437500 0
0.187500 0.437500 0
0.250000 0.437500 0
0.250000 0.500000 0
0.187500 0.500000 0
0.187500 0.500000 0
0.250000 0.500000 0
0.250000 0.562500 0
0.187500 0.562500 0
0.187500 0.562500 0
0.250000 0.562500 0
0.250000 0.625000 0
0.187500 0.625000 0
0.187500 0.625000 0
0.250000 0.625000 0
0.250000 0.687500 0
0.187500 0.687500 0
0.187500 0.687500 0
0.250000 0.687500 0
0.250000 0.750000 0
0.187500 0.750000 0
0.187500 0.750000 0
0.250000 0.750000 0
0.250000 0.812500 0
0.187500 0.812500 0
0.187500 0.812500 0
0.250000 0.812500 0
0.250000 0.875000 0
0.187500 0.875000 0
0.187500 0.875000 0
0.250000 0.875000 0
0.250000 0.937500 0
0.187500 0.937500 0
0.187500 0.937500 0
0.250000 0.937500 0
0.250000 1.000000 0
0.187500 1.000000 0
0.250000 0.000000 0
0.312500 0.000000 0
0.312500 0.062500 0
0.250000 0.062500 0
0.250000 0.062500 0
0.312500 0.062500 0
0.312500 0.125000 0
0.250000 0.125000 0
0.250000 0.125000 0
0.312500 0.125000 0
0.312500 0.187500 0
0.250000 0.187500 0
0.250000 0.187500 0
0.312500 0.187500 0
0.312500 0.250000 0
0.250000 0.250000 0
0.250000 0.250000 0
0.312500 0.250000 0
0.312500 0.312500 0
0.250000 0.312500 0
0.250000 0.312500 0
0.312500 0.312500 0
0.312500 0.375000 0
0.250000 0.375000 0
0.250000 0.375000 0
0.312500 0.375000 0
0.312500 0.437500 0
0.250000 0.437500 0
0.250000 0.437500 0
0.312500 0.437500 0
0.312500 0.500000 0
0.250000 0.500000 0
0.250000 0.500000 0
0.312500 0.500000 0
0.312500 0.562500 0
0.250000 0.562500 0
0.250000 0.562500 0
0.312500 0.562500 0
0.312500 0.625000 0
0.250000 0.625000 0
0.250000 0.625000 0
0.312500 0.625000 0
0.312500 0.687500 0
0.250000 0.687500 0
0.250000 0.687500 0
0.312500 0.687500 0
0.312500 0.750000 0
0.250000 0.750000 0
0.250000 0.750000 0
0.312500 0.750000 0
0.312500 0.812500 0
0.250000 0.812500 0
0.250000 0.812500 0
0.312500 0.812500 0
0.312500 0.875000 0
0.250000 0.875000 0
0.250000 0.875000 0
0.312500 0.875000 0
0.312500 0.937500 0
0.250000 0.937500 0
0.250000 0.937500 0
0.312500 0.937500 0
0.312500 1.000000 0
0.250000 1.000000 0
0.312500 0.000000 0
0.375000 0.000000 0
0.375000 0.062500 0
0.312500 0.062500 0
0.312500 0.062500 0
0.375000 0.062500 0
0.375000 0.125000 0
0.312500 0.125000 0
0.312500 0.125000 0
0.375000 0.125000 0
0.375000 0.187500 0
0.312500 0.187500 0
0.312500 0.187500 0
0.375000 0.187500 0
0.375000 0.250000 0
0.312500 0.250000 0
0.312500 0.250000 0
0.375000 0.250000 0
0.375000 0.312500 0
0.312500 0.312500 0
0.312500 0.312500 0
0.375000 0.312500 0
0.375000 0.375000 0
0.312500 0.375000 0
0.312500 0.375000 0
0.375000 0.375000 0
0.375000 0.437500 0
0.312500 0.437500 0
0.312500 0.437500 0
0.375000 0.437500 0
0.375000 0.500000 0
0.312500 0.500000 0
0.312500 0.500000 0
0.375000 0.500000 0
0.375000 0.562500 0
0.312500 0.562500 0
0.312500 0.562500 0
0.375000 0.562500 0
0.375000 0.625000 0
0.312500 0.625000 0
0.312500 0.625000 0
0.375000 0.625000 0
0.375000 0.687500 0
0.312500 0.687500 0
0.312500 0.687500 0
0.375000 0.687500 0
0.375000 0.750000 0
0.312500 0.750000 0
0.312500 0.750000 0
0.375000 0.750000 0
0.375000 0.812500 0
0.312500 0.812500 0
0.312500 0.812500 0
0.375000 0.812500 0
0.375000 0.875000 0
0.312500 0.875000 0
0.312500 0.875000 0
0.375000 0.875000 0
0.375000 0.937500 0
0.312500 0.937500 0
0.312500 0.937500 0
0.375000 0.937500 0
0.375000 1.000000 0
0.312500 1.000000 0
0.375000 0.000000 0
0.437500 0.000000 0
0.437500 0.062500 0
0.375000 0.062500 0
0.375000 0.062500 0
0.437500 0.062500 0
0.437500 0.125000 0
0.375000 0.125000 0
0.375000 0.125000 0
0.437500 0.125000 0
0.437500 0.187500 0
0.375000 0.187500 0
0.375000 0.187500 0
0.437500 0.187500 0
0.437500 0.250000 0
0.375000 0.250000 0
0.375000 0.250000 0
0.437500 0.250000 0
0.437500 0.312500 0
0.375000 0.312500 0
0.375000 0.312500 0
0.437500 0.312500 0
0.437500 0.375000 0
0.375000 0.375000 0
0.375000 0.375000 0
0.437500 0.375000 0
0.437500 0.437500 0
0.375000 0.437500 0
0.375000 0.437500 0
0.437500 0.437500 0
0.437500 0.500000 0
0.375000 0.500000 0
0.375000 0.500000 0
0.437500 0.500000 0
0.437500 0.562500 0
0.375000 0.562500 0
0.375000 0.562500 0
0.437500 0.562500 0
0.437500 0.625000 0
0.375000 0.625000 0
0.375000 0.625000 0
0.437500 0.625000 0
0.437500 0.687500 0
0.375000 0.687500 0
0.375000 0.687500 0
0.437500 0.687500 0
0.437500 0.750000 0
0.375000 0.750000 0
0.375000 0.750000 0
0.437500 0.750000 0
0.437500 0.812500 0
0.375000 0.812500 0
0.375000 0.812500 0
0.437500 0.812500 0
0.437500 0.875000 0
0.375000 0.875000 0
0.375000 0.875000 0
0.437500 0.875000 0
0.437500 0.937500 0
0.375000 0.937500 0
0.375000 0.937500 0
0.437500 0.937500 0
0.437500 1.000000 0
0.375000 1.000000 0
0.437500 0.000000 0
0.500000 0.000000 0
0.500000 0.062500 0
0.437500 0.062500 0
0.437500 0.062500 0
0.500000 0.062500 0
0.500000 0.125000 0
0.437500 0.125000 0
0.437500 0.125000 0
0.500000 0.125000 0
0.500000 0.187500 0
0.437500 0.187500 0
0.437500 0.187500 0
0.500000 0.187500 0
0.500000 0.250000 0
0.437500 0.250000 0
0.437500 0.250000 0
0.500000 0.250000 0
0.500000 0.312500 0
0.437500 0.312500 0
0.437500 0.312500 0
0.500000 0.312500 0
0.500000 0.375000 0
0.437500 0.375000 0
0.437500 0.375000 0
0.500000 0.375000 0
0.500000 0.437500 0
0.437500 0.437500 0
0.437500 0.437500 0
0.500000 0.437500 0
0.500000 0.500000 0
0.437500 0.500000 0
0.437500 0.500000 0
0.500000 0.500000 0
0.500000 0.562500 0
0.437500 0.562500 0
0.437500 0.562500 0
0.500000 0.562500 0
0.500000 0.625000 0
0.437500 0.625000 0
0.437500 0.625000 0
0.500000 0.625000 0
0.500000 0.687500 0
0.437500 0.687500 0
0.437500 0.687500 0
0.500000 0.687500 0
0.500000 0.750000 0
[...]
POINT_DATA 10240
VECTORS vel FLOAT
4.740595e-03 -6.837112e-03 0.000000e+00
-2.212849e-02 1.421414e-03 0.000000e+00
2.095907e-01 3.802133e-02 0.000000e+00
2.350464e-01 1.831651e-02 0.000000e+00
2.350464e-01 1.831651e-02 0.000000e+00
2.095907e-01 3.802133e-02 0.000000e+00
4.517344e-01 3.444012e-02 0.000000e+00
4.406473e-01 2.049794e-02 0.000000e+00
4.406473e-01 2.049794e-02 0.000000e+00
4.517344e-01 3.444012e-02 0.000000e+00
6.362707e-01 1.211748e-02 0.000000e+00
6.136218e-01 1.519749e-02 0.000000e+00
6.136218e-01 1.519749e-02 0.000000e+00
6.362707e-01 1.211748e-02 0.000000e+00
7.719712e-01 -6.786447e-03 0.000000e+00
7.529917e-01 9.682175e-03 0.000000e+00
7.529917e-01 9.682175e-03 0.000000e+00
7.719712e-01 -6.786447e-03 0.000000e+00
8.711006e-01 -1.637205e-02 0.000000e+00
8.606737e-01 5.612336e-03 0.000000e+00
8.606737e-01 5.612336e-03 0.000000e+00
8.711006e-01 -1.637205e-02 0.000000e+00
9.423569e-01 -1.581422e-02 0.000000e+00
9.367987e-01 3.403221e-03 0.000000e+00
9.367987e-01 3.403221e-03 0.000000e+00
9.423569e-01 -1.581422e-02 0.000000e+00
9.864277e-01 -9.200529e-03 0.000000e+00
9.830867e-01 1.725548e-03 0.000000e+00
9.830867e-01 1.725548e-03 0.000000e+00
9.864277e-01 -9.200529e-03 0.000000e+00
1.001403e+00 2.473540e-05 0.000000e+00
9.986670e-01 6.471564e-06 0.000000e+00
9.986670e-01 6.471564e-06 0.000000e+00
1.001403e+00 2.473540e-05 0.000000e+00
9.863706e-01 9.244182e-03 0.000000e+00
9.831029e-01 -1.713171e-03 0.000000e+00
9.831029e-01 -1.713171e-03 0.000000e+00
9.863706e-01 9.244182e-03 0.000000e+00
9.422402e-01 1.583862e-02 0.000000e+00
9.368486e-01 -3.397572e-03 0.000000e+00
9.368486e-01 -3.397572e-03 0.000000e+00
9.422402e-01 1.583862e-02 0.000000e+00
8.708546e-01 1.640218e-02 0.000000e+00
8.606731e-01 -5.621251e-03 0.000000e+00
8.606731e-01 -5.621251e-03 0.000000e+00
8.708546e-01 1.640218e-02 0.000000e+00
7.719282e-01 6.859339e-03 0.000000e+00
7.532257e-01 -9.686237e-03 0.000000e+00
7.532257e-01 -9.686237e-03 0.000000e+00
7.719282e-01 6.859339e-03 0.000000e+00
6.362012e-01 -1.202786e-02 0.000000e+00
6.136126e-01 -1.518903e-02 0.000000e+00
6.136126e-01 -1.518903e-02 0.000000e+00
6.362012e-01 -1.202786e-02 0.000000e+00
4.516994e-01 -3.434264e-02 0.000000e+00
4.406407e-01 -2.046515e-02 0.000000e+00
4.406407e-01 -2.046515e-02 0.000000e+00
4.516994e-01 -3.434264e-02 0.000000e+00
2.096500e-01 -3.794586e-02 0.000000e+00
2.350462e-01 -1.828759e-02 0.000000e+00
2.350462e-01 -1.828759e-02 0.000000e+00
2.096500e-01 -3.794586e-02 0.000000e+00
-2.209494e-02 -1.417714e-03 0.000000e+00
4.728288e-03 6.819089e-03 0.000000e+00
-2.212849e-02 1.421414e-03 0.000000e+00
-3.197003e-02 -2.782612e-04 0.000000e+00
2.054588e-01 9.883599e-03 0.000000e+00
2.095907e-01 3.802133e-02 0.000000e+00
2.095907e-01 3.802133e-02 0.000000e+00
2.054588e-01 9.883599e-03 0.000000e+00
4.747139e-01 -9.327932e-03 0.000000e+00
4.517344e-01 3.444012e-02 0.000000e+00
4.517344e-01 3.444012e-02 0.000000e+00
4.747139e-01 -9.327932e-03 0.000000e+00
6.625885e-01 -3.742405e-02 0.000000e+00
6.362707e-01 1.211748e-02 0.000000e+00
6.362707e-01 1.211748e-02 0.000000e+00
6.625885e-01 -3.742405e-02 0.000000e+00
7.855198e-01 -5.712901e-02 0.000000e+00
7.719712e-01 -6.786447e-03 0.000000e+00
7.719712e-01 -6.786447e-03 0.000000e+00
7.855198e-01 -5.712901e-02 0.000000e+00
8.703288e-01 -5.931871e-02 0.000000e+00
8.711006e-01 -1.637205e-02 0.000000e+00
8.711006e-01 -1.637205e-02 0.000000e+00
8.703288e-01 -5.931871e-02 0.000000e+00
9.320695e-01 -4.734405e-02 0.000000e+00
9.423569e-01 -1.581422e-02 0.000000e+00
9.423569e-01 -1.581422e-02 0.000000e+00
9.320695e-01 -4.734405e-02 0.000000e+00
9.708384e-01 -2.595645e-02 0.000000e+00
9.864277e-01 -9.200529e-03 0.000000e+00
9.864277e-01 -9.200529e-03 0.000000e+00
9.708384e-01 -2.595645e-02 0.000000e+00
9.841280e-01 3.666700e-05 0.000000e+00
1.001403e+00 2.473540e-05 0.000000e+00
1.001403e+00 2.473540e-05 0.000000e+00
9.841280e-01 3.666700e-05 0.000000e+00
9.708676e-01 2.598424e-02 0.000000e+00
9.863706e-01 9.244182e-03 0.000000e+00
9.863706e-01 9.244182e-03 0.000000e+00
9.708676e-01 2.598424e-02 0.000000e+00
9.320836e-01 4.723431e-02 0.000000e+00
9.422402e-01 1.583862e-02 0.000000e+00
9.422402e-01 1.583862e-02 0.000000e+00
9.320836e-01 4.723431e-02 0.000000e+00
8.702008e-01 5.903025e-02 0.000000e+00
8.708546e-01 1.640218e-02 0.000000e+00
8.708546e-01 1.640218e-02 0.000000e+00
8.702008e-01 5.903025e-02 0.000000e+00
7.850777e-01 5.721996e-02 0.000000e+00
7.719282e-01 6.859339e-03 0.000000e+00
7.719282e-01 6.859339e-03 0.000000e+00
7.850777e-01 5.721996e-02 0.000000e+00
6.625335e-01 3.752949e-02 0.000000e+00
6.362012e-01 -1.202786e-02 0.000000e+00
6.362012e-01 -1.202786e-02 0.000000e+00
6.625335e-01 3.752949e-02 0.000000e+00
4.747083e-01 9.401922e-03 0.000000e+00
4.516994e-01 -3.434264e-02 0.000000e+00
4.516994e-01 -3.434264e-02 0.000000e+00
4.747083e-01 9.401922e-03 0.000000e+00
2.055505e-01 -9.848800e-03 0.000000e+00
2.096500e-01 -3.794586e-02 0.000000e+00
2.096500e-01 -3.794586e-02 0.000000e+00
2.055505e-01 -9.848800e-03 0.000000e+00
-3.192606e-02 2.794299e-04 0.000000e+00
-2.209494e-02 -1.417714e-03 0.000000e+00
-3.197003e-02 -2.782612e-04 0.000000e+00
-3.331161e-02 -1.584017e-03 0.000000e+00
2.201816e-01 -9.085912e-03 0.000000e+00
2.054588e-01 9.883599e-03 0.000000e+00
2.054588e-01 9.883599e-03 0.000000e+00
2.201816e-01 -9.085912e-03 0.000000e+00
5.040027e-01 -3.531294e-02 0.000000e+00
4.747139e-01 -9.327932e-03 0.000000e+00
4.747139e-01 -9.327932e-03 0.000000e+00
5.040027e-01 -3.531294e-02 0.000000e+00
6.879182e-01 -6.596658e-02 0.000000e+00
6.625885e-01 -3.742405e-02 0.000000e+00
6.625885e-01 -3.742405e-02 0.000000e+00
6.879182e-01 -6.596658e-02 0.000000e+00
7.949445e-01 -8.312356e-02 0.000000e+00
7.855198e-01 -5.712901e-02 0.000000e+00
7.855198e-01 -5.712901e-02 0.000000e+00
7.949445e-01 -8.312356e-02 0.000000e+00
8.621596e-01 -8.146177e-02 0.000000e+00
8.703288e-01 -5.931871e-02 0.000000e+00
8.703288e-01 -5.931871e-02 0.000000e+00
8.621596e-01 -8.146177e-02 0.000000e+00
9.104090e-01 -6.357803e-02 0.000000e+00
9.320695e-01 -4.734405e-02 0.000000e+00
9.320695e-01 -4.734405e-02 0.000000e+00
9.104090e-01 -6.357803e-02 0.000000e+00
9.412752e-01 -3.458904e-02 0.000000e+00
9.708384e-01 -2.595645e-02 0.000000e+00
9.708384e-01 -2.595645e-02 0.000000e+00
9.412752e-01 -3.458904e-02 0.000000e+00
9.519297e-01 4.309068e-06 0.000000e+00
9.841280e-01 3.666700e-05 0.000000e+00
9.841280e-01 3.666700e-05 0.000000e+00
9.519297e-01 4.309068e-06 0.000000e+00
9.412118e-01 3.460010e-02 0.000000e+00
9.708676e-01 2.598424e-02 0.000000e+00
9.708676e-01 2.598424e-02 0.000000e+00
9.412118e-01 3.460010e-02 0.000000e+00
9.102452e-01 6.359324e-02 0.000000e+00
9.320836e-01 4.723431e-02 0.000000e+00
9.320836e-01 4.723431e-02 0.000000e+00
9.102452e-01 6.359324e-02 0.000000e+00
8.617915e-01 8.148758e-02 0.000000e+00
8.702008e-01 5.903025e-02 0.000000e+00
8.702008e-01 5.903025e-02 0.000000e+00
8.617915e-01 8.148758e-02 0.000000e+00
7.943554e-01 8.315663e-02 0.000000e+00
7.850777e-01 5.721996e-02 0.000000e+00
7.850777e-01 5.721996e-02 0.000000e+00
7.943554e-01 8.315663e-02 0.000000e+00
6.878568e-01 6.602539e-02 0.000000e+00
6.625335e-01 3.752949e-02 0.000000e+00
6.625335e-01 3.752949e-02 0.000000e+00
6.878568e-01 6.602539e-02 0.000000e+00
5.040373e-01 3.535572e-02 0.000000e+00
4.747083e-01 9.401922e-03 0.000000e+00
4.747083e-01 9.401922e-03 0.000000e+00
5.040373e-01 3.535572e-02 0.000000e+00
2.203124e-01 9.083320e-03 0.000000e+00
2.055505e-01 -9.848800e-03 0.000000e+00
2.055505e-01 -9.848800e-03 0.000000e+00
2.203124e-01 9.083320e-03 0.000000e+00
-3.327024e-02 1.582522e-03 0.000000e+00
-3.192606e-02 2.794299e-04 0.000000e+00
-3.331161e-02 -1.584017e-03 0.000000e+00
-3.270813e-02 -1.687660e-03 0.000000e+00
2.400218e-01 -1.140538e-02 0.000000e+00
2.201816e-01 -9.085912e-03 0.000000e+00
2.201816e-01 -9.085912e-03 0.000000e+00
2.400218e-01 -1.140538e-02 0.000000e+00
5.342981e-01 -3.498003e-02 0.000000e+00
5.040027e-01 -3.531294e-02 0.000000e+00
5.040027e-01 -3.531294e-02 0.000000e+00
5.342981e-01 -3.498003e-02 0.000000e+00
7.117964e-01 -6.209187e-02 0.000000e+00
6.879182e-01 -6.596658e-02 0.000000e+00
6.879182e-01 -6.596658e-02 0.000000e+00
7.117964e-01 -6.209187e-02 0.000000e+00
8.017681e-01 -7.719453e-02 0.000000e+00
7.949445e-01 -8.312356e-02 0.000000e+00
7.949445e-01 -8.312356e-02 0.000000e+00
8.017681e-01 -7.719453e-02 0.000000e+00
8.511282e-01 -7.553247e-02 0.000000e+00
8.621596e-01 -8.146177e-02 0.000000e+00
8.621596e-01 -8.146177e-02 0.000000e+00
8.511282e-01 -7.553247e-02 0.000000e+00
8.855446e-01 -5.906149e-02 0.000000e+00
9.104090e-01 -6.357803e-02 0.000000e+00
9.104090e-01 -6.357803e-02 0.000000e+00
8.855446e-01 -5.906149e-02 0.000000e+00
9.080018e-01 -3.213211e-02 0.000000e+00
9.412752e-01 -3.458904e-02 0.000000e+00
9.412752e-01 -3.458904e-02 0.000000e+00
9.080018e-01 -3.213211e-02 0.000000e+00
9.158858e-01 1.651930e-04 0.000000e+00
9.519297e-01 4.309068e-06 0.000000e+00
9.519297e-01 4.309068e-06 0.000000e+00
9.158858e-01 1.651930e-04 0.000000e+00
9.081168e-01 3.244193e-02 0.000000e+00
9.412118e-01 3.460010e-02 0.000000e+00
9.412118e-01 3.460010e-02 0.000000e+00
9.081168e-01 3.244193e-02 0.000000e+00
8.857415e-01 5.931002e-02 0.000000e+00
9.102452e-01 6.359324e-02 0.000000e+00
9.102452e-01 6.359324e-02 0.000000e+00
8.857415e-01 5.931002e-02 0.000000e+00
8.513414e-01 7.567127e-02 0.000000e+00
8.617915e-01 8.148758e-02 0.000000e+00
8.617915e-01 8.148758e-02 0.000000e+00
8.513414e-01 7.567127e-02 0.000000e+00
8.022050e-01 7.718723e-02 0.000000e+00
7.943554e-01 8.315663e-02 0.000000e+00
7.943554e-01 8.315663e-02 0.000000e+00
8.022050e-01 7.718723e-02 0.000000e+00
7.117303e-01 6.209582e-02 0.000000e+00
6.878568e-01 6.602539e-02 0.000000e+00
6.878568e-01 6.602539e-02 0.000000e+00
7.117303e-01 6.209582e-02 0.000000e+00
5.343603e-01 3.485467e-02 0.000000e+00
5.040373e-01 3.535572e-02 0.000000e+00
5.040373e-01 3.535572e-02 0.000000e+00
5.343603e-01 3.485467e-02 0.000000e+00
2.401706e-01 1.137027e-02 0.000000e+00
2.203124e-01 9.083320e-03 0.000000e+00
2.203124e-01 9.083320e-03 0.000000e+00
2.401706e-01 1.137027e-02 0.000000e+00
-3.267762e-02 1.683912e-03 0.000000e+00
-3.327024e-02 1.582522e-03 0.000000e+00
-3.270813e-02 -1.687660e-03 0.000000e+00
-3.313719e-02 -1.058482e-03 0.000000e+00
2.558638e-01 -4.943513e-03 0.000000e+00
2.400218e-01 -1.140538e-02 0.000000e+00
2.400218e-01 -1.140538e-02 0.000000e+00
2.558638e-01 -4.943513e-03 0.000000e+00
5.586513e-01 -2.147538e-02 0.000000e+00
5.342981e-01 -3.498003e-02 0.000000e+00
5.342981e-01 -3.498003e-02 0.000000e+00
5.586513e-01 -2.147538e-02 0.000000e+00
7.318414e-01 -4.193507e-02 0.000000e+00
7.117964e-01 -6.209187e-02 0.000000e+00
7.117964e-01 -6.209187e-02 0.000000e+00
7.318414e-01 -4.193507e-02 0.000000e+00
8.088042e-01 -5.466960e-02 0.000000e+00
8.017681e-01 -7.719453e-02 0.000000e+00
8.017681e-01 -7.719453e-02 0.000000e+00
8.088042e-01 -5.466960e-02 0.000000e+00
8.437255e-01 -5.497093e-02 0.000000e+00
8.511282e-01 -7.553247e-02 0.000000e+00
8.511282e-01 -7.553247e-02 0.000000e+00
8.437255e-01 -5.497093e-02 0.000000e+00
8.664207e-01 -4.371657e-02 0.000000e+00
8.855446e-01 -5.906149e-02 0.000000e+00
8.855446e-01 -5.906149e-02 0.000000e+00
8.664207e-01 -4.371657e-02 0.000000e+00
8.815108e-01 -2.403888e-02 0.000000e+00
9.080018e-01 -3.213211e-02 0.000000e+00
9.080018e-01 -3.213211e-02 0.000000e+00
8.815108e-01 -2.403888e-02 0.000000e+00
8.868987e-01 1.263643e-05 0.000000e+00
9.158858e-01 1.651930e-04 0.000000e+00
9.158858e-01 1.651930e-04 0.000000e+00
8.868987e-01 1.263643e-05 0.000000e+00
8.816338e-01 2.406161e-02 0.000000e+00
9.081168e-01 3.244193e-02 0.000000e+00
9.081168e-01 3.244193e-02 0.000000e+00
8.816338e-01 2.406161e-02 0.000000e+00
8.666372e-01 4.373528e-02 0.000000e+00
8.857415e-01 5.931002e-02 0.000000e+00
8.857415e-01 5.931002e-02 0.000000e+00
8.666372e-01 4.373528e-02 0.000000e+00
8.439624e-01 5.496924e-02 0.000000e+00
8.513414e-01 7.567127e-02 0.000000e+00
8.513414e-01 7.567127e-02 0.000000e+00
8.439624e-01 5.496924e-02 0.000000e+00
8.092567e-01 5.462958e-02 0.000000e+00
8.022050e-01 7.718723e-02 0.000000e+00
8.022050e-01 7.718723e-02 0.000000e+00
8.092567e-01 5.462958e-02 0.000000e+00
7.318019e-01 4.190959e-02 0.000000e+00
7.117303e-01 6.209582e-02 0.000000e+00
7.117303e-01 6.209582e-02 0.000000e+00
7.318019e-01 4.190959e-02 0.000000e+00
5.587345e-01 2.141726e-02 0.000000e+00
5.343603e-01 3.485467e-02 0.000000e+00
5.343603e-01 3.485467e-02 0.000000e+00
5.587345e-01 2.141726e-02 0.000000e+00
2.559969e-01 4.895129e-03 0.000000e+00
2.401706e-01 1.137027e-02 0.000000e+00
2.401706e-01 1.137027e-02 0.000000e+00
2.559969e-01 4.895129e-03 0.000000e+00
-3.312011e-02 1.053631e-03 0.000000e+00
-3.267762e-02 1.683912e-03 0.000000e+00
-3.313719e-02 -1.058482e-03 0.000000e+00
-3.498138e-02 4.263413e-04 0.000000e+00
2.649484e-01 9.079134e-04 0.000000e+00
2.558638e-01 -4.943513e-03 0.000000e+00
2.558638e-01 -4.943513e-03 0.000000e+00
2.649484e-01 9.079134e-04 0.000000e+00
5.756004e-01 -9.326194e-03 0.000000e+00
5.586513e-01 -2.147538e-02 0.000000e+00
5.586513e-01 -2.147538e-02 0.000000e+00
5.756004e-01 -9.326194e-03 0.000000e+00
7.468751e-01 -2.320049e-02 0.000000e+00
7.318414e-01 -4.193507e-02 0.000000e+00
7.318414e-01 -4.193507e-02 0.000000e+00
7.468751e-01 -2.320049e-02 0.000000e+00
8.153282e-01 -3.295442e-02 0.000000e+00
8.088042e-01 -5.466960e-02 0.000000e+00
8.088042e-01 -5.466960e-02 0.000000e+00
8.153282e-01 -3.295442e-02 0.000000e+00
8.399996e-01 -3.451498e-02 0.000000e+00
8.437255e-01 -5.497093e-02 0.000000e+00
8.437255e-01 -5.497093e-02 0.000000e+00
8.399996e-01 -3.451498e-02 0.000000e+00
8.540631e-01 -2.807884e-02 0.000000e+00
8.664207e-01 -4.371657e-02 0.000000e+00
8.664207e-01 -4.371657e-02 0.000000e+00
8.540631e-01 -2.807884e-02 0.000000e+00
8.636022e-01 -1.564852e-02 0.000000e+00
8.815108e-01 -2.403888e-02 0.000000e+00
8.815108e-01 -2.403888e-02 0.000000e+00
8.636022e-01 -1.564852e-02 0.000000e+00
8.670834e-01 -5.504070e-05 0.000000e+00
8.868987e-01 1.263643e-05 0.000000e+00
8.868987e-01 1.263643e-05 0.000000e+00
8.670834e-01 -5.504070e-05 0.000000e+00
8.637016e-01 1.554586e-02 0.000000e+00
8.816338e-01 2.406161e-02 0.000000e+00
8.816338e-01 2.406161e-02 0.000000e+00
8.637016e-01 1.554586e-02 0.000000e+00
8.542339e-01 2.800263e-02 0.000000e+00
8.666372e-01 4.373528e-02 0.000000e+00
8.666372e-01 4.373528e-02 0.000000e+00
8.542339e-01 2.800263e-02 0.000000e+00
8.401879e-01 3.446845e-02 0.000000e+00
8.439624e-01 5.496924e-02 0.000000e+00
8.439624e-01 5.496924e-02 0.000000e+00
8.401879e-01 3.446845e-02 0.000000e+00
8.157364e-01 3.291783e-02 0.000000e+00
8.092567e-01 5.462958e-02 0.000000e+00
8.092567e-01 5.462958e-02 0.000000e+00
8.157364e-01 3.291783e-02 0.000000e+00
7.468724e-01 2.315659e-02 0.000000e+00
7.318019e-01 4.190959e-02 0.000000e+00
7.318019e-01 4.190959e-02 0.000000e+00
7.468724e-01 2.315659e-02 0.000000e+00
5.756927e-01 9.262302e-03 0.000000e+00
5.587345e-01 2.141726e-02 0.000000e+00
5.587345e-01 2.141726e-02 0.000000e+00
5.756927e-01 9.262302e-03 0.000000e+00
2.650528e-01 -9.489149e-04 0.000000e+00
2.559969e-01 4.895129e-03 0.000000e+00
2.559969e-01 4.895129e-03 0.000000e+00
2.650528e-01 -9.489149e-04 0.000000e+00
-3.497583e-02 -4.295445e-04 0.000000e+00
-3.312011e-02 1.053631e-03 0.000000e+00
-3.498138e-02 4.263413e-04 0.000000e+00
-3.731685e-02 9.783455e-04 0.000000e+00
2.692442e-01 3.403194e-03 0.000000e+00
2.649484e-01 9.079134e-04 0.000000e+00
2.649484e-01 9.079134e-04 0.000000e+00
2.692442e-01 3.403194e-03 0.000000e+00
5.865689e-01 -2.595258e-03 0.000000e+00
5.756004e-01 -9.326194e-03 0.000000e+00
5.756004e-01 -9.326194e-03 0.000000e+00
5.865689e-01 -2.595258e-03 0.000000e+00
7.573060e-01 -1.152479e-02 0.000000e+00
7.468751e-01 -2.320049e-02 0.000000e+00
7.468751e-01 -2.320049e-02 0.000000e+00
7.573060e-01 -1.152479e-02 0.000000e+00
8.206212e-01 -1.844770e-02 0.000000e+00
8.153282e-01 -3.295442e-02 0.000000e+00
8.153282e-01 -3.295442e-02 0.000000e+00
8.206212e-01 -1.844770e-02 0.000000e+00
8.385558e-01 -2.027653e-02 0.000000e+00
8.399996e-01 -3.451498e-02 0.000000e+00
8.399996e-01 -3.451498e-02 0.000000e+00
8.385558e-01 -2.027653e-02 0.000000e+00
8.467939e-01 -1.691308e-02 0.000000e+00
8.540631e-01 -2.807884e-02 0.000000e+00
8.540631e-01 -2.807884e-02 0.000000e+00
8.467939e-01 -1.691308e-02 0.000000e+00
8.525049e-01 -9.558044e-03 0.000000e+00
8.636022e-01 -1.564852e-02 0.000000e+00
8.636022e-01 -1.564852e-02 0.000000e+00
8.525049e-01 -9.558044e-03 0.000000e+00
8.546517e-01 -6.225896e-05 0.000000e+00
8.670834e-01 -5.504070e-05 0.000000e+00
8.670834e-01 -5.504070e-05 0.000000e+00
8.546517e-01 -6.225896e-05 0.000000e+00
8.525720e-01 9.443328e-03 0.000000e+00
8.637016e-01 1.554586e-02 0.000000e+00
8.637016e-01 1.554586e-02 0.000000e+00
8.525720e-01 9.443328e-03 0.000000e+00
8.469075e-01 1.682865e-02 0.000000e+00
8.542339e-01 2.800263e-02 0.000000e+00
8.542339e-01 2.800263e-02 0.000000e+00
8.469075e-01 1.682865e-02 0.000000e+00
8.386816e-01 2.022664e-02 0.000000e+00
8.401879e-01 3.446845e-02 0.000000e+00
8.401879e-01 3.446845e-02 0.000000e+00
8.386816e-01 2.022664e-02 0.000000e+00
8.209747e-01 1.842117e-02 0.000000e+00
8.157364e-01 3.291783e-02 0.000000e+00
8.157364e-01 3.291783e-02 0.000000e+00
8.209747e-01 1.842117e-02 0.000000e+00
7.573268e-01 1.147533e-02 0.000000e+00
7.468724e-01 2.315659e-02 0.000000e+00
7.468724e-01 2.315659e-02 0.000000e+00
7.573268e-01 1.147533e-02 0.000000e+00
5.866533e-01 2.544054e-03 0.000000e+00
5.756927e-01 9.262302e-03 0.000000e+00
5.756927e-01 9.262302e-03 0.000000e+00
5.866533e-01 2.544054e-03 0.000000e+00
2.693215e-01 -3.429534e-03 0.000000e+00
2.650528e-01 -9.489149e-04 0.000000e+00
2.650528e-01 -9.489149e-04 0.000000e+00
2.693215e-01 -3.429534e-03 0.000000e+00
-3.731777e-02 -9.796609e-04 0.000000e+00
-3.497583e-02 -4.295445e-04 0.000000e+00
-3.731685e-02 9.783455e-04 0.000000e+00
-3.939108e-02 8.522023e-04 0.000000e+00
2.708954e-01 3.643460e-03 0.000000e+00
2.692442e-01 3.403194e-03 0.000000e+00
2.692442e-01 3.403194e-03 0.000000e+00
2.708954e-01 3.643460e-03 0.000000e+00
5.933199e-01 3.510467e-04 0.000000e+00
5.865689e-01 -2.595258e-03 0.000000e+00
5.865689e-01 -2.595258e-03 0.000000e+00
5.933199e-01 3.510467e-04 0.000000e+00
7.642108e-01 -5.265116e-03 0.000000e+00
7.573060e-01 -1.152479e-02 0.000000e+00
7.573060e-01 -1.152479e-02 0.000000e+00
7.642108e-01 -5.265116e-03 0.000000e+00
8.245536e-01 -9.958105e-03 0.000000e+00
8.206212e-01 -1.844770e-02 0.000000e+00
8.206212e-01 -1.844770e-02 0.000000e+00
8.245536e-01 -9.958105e-03 0.000000e+00
8.382367e-01 -1.158095e-02 0.000000e+00
8.385558e-01 -2.027653e-02 0.000000e+00
8.385558e-01 -2.027653e-02 0.000000e+00
8.382367e-01 -1.158095e-02 0.000000e+00
8.426922e-01 -9.924990e-03 0.000000e+00
8.467939e-01 -1.691308e-02 0.000000e+00
8.467939e-01 -1.691308e-02 0.000000e+00
8.426922e-01 -9.924990e-03 0.000000e+00
8.458708e-01 -5.688033e-03 0.000000e+00
8.525049e-01 -9.558044e-03 0.000000e+00
8.525049e-01 -9.558044e-03 0.000000e+00
8.458708e-01 -5.688033e-03 0.000000e+00
8.471252e-01 -4.845488e-05 0.000000e+00
8.546517e-01 -6.225896e-05 0.000000e+00
8.546517e-01 -6.225896e-05 0.000000e+00
8.471252e-01 -4.845488e-05 0.000000e+00
8.459113e-01 5.598850e-03 0.000000e+00
8.525720e-01 9.443328e-03 0.000000e+00
8.525720e-01 9.443328e-03 0.000000e+00
8.459113e-01 5.598850e-03 0.000000e+00
8.427600e-01 9.858717e-03 0.000000e+00
8.469075e-01 1.682865e-02 0.000000e+00
8.469075e-01 1.682865e-02 0.000000e+00
8.427600e-01 9.858717e-03 0.000000e+00
8.383124e-01 1.154095e-02 0.000000e+00
8.386816e-01 2.022664e-02 0.000000e+00
8.386816e-01 2.022664e-02 0.000000e+00
8.383124e-01 1.154095e-02 0.000000e+00
8.248629e-01 9.938033e-03 0.000000e+00
8.209747e-01 1.842117e-02 0.000000e+00
8.209747e-01 1.842117e-02 0.000000e+00
8.248629e-01 9.938033e-03 0.000000e+00
7.642418e-01 5.222389e-03 0.000000e+00
7.573268e-01 1.147533e-02 0.000000e+00
7.573268e-01 1.147533e-02 0.000000e+00
7.642418e-01 5.222389e-03 0.000000e+00
5.933893e-01 -3.883204e-04 0.000000e+00
5.866533e-01 2.544054e-03 0.000000e+00