# vtk DataFile Version 3.0
higtree
ASCII
DATASET UNSTRUCTURED_GRID
POINTS 10240 float
0.000000 0.000000 0
0.062500 0.000000 0
0.062500 0.062500 0
0.000000 0.062500 0
0.000000 0.062500 0
0.062500 0.062500 0
0.062500 0.125000 0
0.000000 0.125000 0
0.000000 0.125000 0
0.062500 0.125000 0
0.062500 0.187500 0
0.000000 0.187500 0
0.000000 0.187500 0
0.062500 0.187500 0
0.062500 0.250000 0
0.000000 0.250000 0
0.000000 0.250000 0
0.062500 0.250000 0
0.062500 0.312500 0
0.000000 0.312500 0
0.000000 0.312500 0
0.062500 0.312500 0
0.062500 0.375000 0
0.000000 0.375000 0
0.000000 0.375000 0
0.062500 0.375000 0
0.062500 0.437500 0
0.000000 0.437500 0
0.000000 0.437500 0
0.062500 0.437500 0
0.062500 0.500000 0
0.000000 0.500000 0
0.000000 0.500000 0
0.062500 0.500000 0
0.062500 0.562500 0
0.000000 0.562500 0
0.000000 0.562500 0
0.062500 0.562500 0
0.062500 0.625000 0
0.000000 0.625000 0
0.000000 0.625000 0
0.062500 0.625000 0
0.062500 0.687500 0
0.000000 0.687500 0
0.000000 0.687500 0
0.062500 0.687500 0
0.062500 0.750000 0
0.000000 0.750000 0
0.000000 0.750000 0
0.062500 0.750000 0
0.062500 0.812500 0
0.000000 0.812500 0
0.000000 0.812500 0
0.062500 0.812500 0
0.062500 0.875000 0
0.000000 0.875000 0
0.000000 0.875000 0
0.062500 0.875000 0
0.062500 0.937500 0
0.000000 0.937500 0
0.000000 0.937500 0
0.062500 0.937500 0
0.062500 1.000000 0
0.000000 1.000000 0
0.062500 0.000000 0
0.125000 0.000000 0
0.125000 0.062500 0
0.062500 0.062500 0
0.062500 0.062500 0
0.125000 0.062500 0
0.125000 0.125000 0
0.062500 0.125000 0
0.062500 0.125000 0
0.125000 0.125000 0
0.125000 0.187500 0
0.062500 0.187500 0
0.062500 0.187500 0
0.125000 0.187500 0
0.125000 0.250000 0
0.062500 0.250000 0
0.062500 0.250000 0
0.125000 0.250000 0
0.125000 0.312500 0
0.062500 0.312500 0
0.062500 0.312500 0
0.125000 0.312500 0
0.125000 0.375000 0
0.062500 0.375000 0
0.062500 0.375000 0
0.125000 0.375000 0
0.125000 0.437500 0
0.062500 0.437500 0
0.062500 0.437500 0
0.125000 0.437500 0
0.125000 0.500000 0
0.062500 0.500000 0
0.062500 0.500000 0
0.125000 0.500000 0
0.125000 0.562500 0
0.062500 0.562500 0
0.062500 0.562500 0
0.125000 0.562500 0
0.125000 0.625000 0
0.062500 0.625000 0
0.062500 0.625000 0
0.125000 0.625000 0
0.125000 0.687500 0
0.062500 0.687500 0
0.062500 0.687500 0
0.125000 0.687500 0
0.125000 0.750000 0
0.062500 0.750000 0
0.062500 0.750000 0
0.125000 0.750000 0
0.125000 0.812500 0
0.062500 0.812500 0
0.062500 0.812500 0
0.125000 0.812500 0
0.125000 0.875000 0
0.062500 0.875000 0
0.062500 0.875000 0
0.125000 0.875000 0
0.125000 0.937500 0
0.062500 0.937500 0
0.062500 0.937500 0
0.125000 0.937500 0
0.125000 1.000000 0
0.062500 1.000000 0
0.125000 0.000000 0
0.187500 0.000000 0
0.187500 0.062500 0
0.125000 0.062500 0
0.125000 0.062500 0
0.187500 0.062500 0
0.187500 0.125000 0
0.125000 0.125000 0
0.125000 0.125000 0
0.187500 0.125000 0
0.187500 0.187500 0
0.125000 0.187500 0
0.125000 0.187500 0
0.187500 0.187500 0
0.187500 0.250000 0
0.125000 0.250000 0
0.125000 0.250000 0
0.187500 0.250000 0
0.187500 0.312500 0
0.125000 0.312500 0
0.125000 0.312500 0
0.187500 0.312500 0
0.187500 0.375000 0
0.125000 0.375000 0
0.125000 0.375000 0
0.187500 0.375000 0
0.187500 0.437500 0
0.125000 0.437500 0
0.125000 0.437500 0
0.187500 0.437500 0
0.187500 0.500000 0
0.125000 0.500000 0
0.125000 0.500000 0
0.187500 0.500000 0
0.187500 0.562500 0
0.125000 0.562500 0
0.125000 0.562500 0
0.187500 0.562500 0
0.187500 0.625000 0
0.125000 0.625000 0
0.125000 0.625000 0
0.187500 0.625000 0
0.187500 0.687500 0
0.125000 0.687500 0
0.125000 0.687500 0
0.187500 0.687500 0
0.187500 0.750000 0
0.125000 0.750000 0
0.125000 0.750000 0
0.187500 0.750000 0
0.187500 0.812500 0
0.125000 0.812500 0
0.125000 0.812500 0
0.187500 0.812500 0
0.187500 0.875000 0
0.125000 0.875000 0
0.125000 0.875000 0
0.187500 0.875000 0
0.187500 0.937500 0
0.125000 0.937500 0
0.125000 0.937500 0
0.187500 0.937500 0
0.187500 1.000000 0
0.125000 1.000000 0
0.187500 0.000000 0
0.250000 0.000000 0
0.250000 0.062500 0
0.187500 0.062500 0
0.187500 0.062500 0
0.250000 0.062500 0
0.250000 0.125000 0
0.187500 0.125000 0
0.187500 0.125000 0
0.250000 0.125000 0
0.250000 0.187500 0
0.187500 0.187500 0
0.187500 0.187500 0
0.250000 0.187500 0
0.250000 0.250000 0
0.187500 0.250000 0
0.187500 0.250000 0
0.250000 0.250000 0
0.250000 0.312500 0
0.187500 0.312500 0
0.187500 0.312500 0
0.250000 0.312500 0
0.250000 0.375000 0
0.187500 0.375000 0
0.187500 0.375000 0
0.250000 0.375000 0
0.250000 0.437500 0
0.187500 0.437500 0
0.187500 0.437500 0
0.250000 0.437500 0
0.250000 0.500000 0
0.187500 0.500000 0
0.187500 0.500000 0
0.250000 0.500000 0
0.250000 0.562500 0
0.187500 0.562500 0
0.187500 0.562500 0
0.250000 0.562500 0
0.250000 0.625000 0
0.187500 0.625000 0
0.187500 0.625000 0
0.250000 0.625000 0
0.250000 0.687500 0
0.187500 0.687500 0
0.187500 0.687500 0
0.250000 0.687500 0
0.250000 0.750000 0
0.187500 0.750000 0
0.187500 0.750000 0
0.250000 0.750000 0
0.250000 0.812500 0
0.187500 0.812500 0
0.187500 0.812500 0
0.250000 0.812500 0
0.250000 0.875000 0
0.187500 0.875000 0
0.187500 0.875000 0
0.250000 0.875000 0
0.250000 0.937500 0
0.187500 0.937500 0
0.187500 0.937500 0
0.250000 0.937500 0
0.250000 1.000000 0
0.187500 1.000000 0
0.250000 0.000000 0
0.312500 0.000000 0
0.312500 0.062500 0
0.250000 0.062500 0
0.250000 0.062500 0
0.312500 0.062500 0
0.312500 0.125000 0
0.250000 0.125000 0
0.250000 0.125000 0
0.312500 0.125000 0
0.312500 0.187500 0
0.250000 0.187500 0
0.250000 0.187500 0
0.312500 0.187500 0
0.312500 0.250000 0
0.250000 0.250000 0
0.250000 0.250000 0
0.312500 0.250000 0
0.312500 0.312500 0
0.250000 0.312500 0
0.250000 0.312500 0
0.312500 0.312500 0
0.312500 0.375000 0
0.250000 0.375000 0
0.250000 0.375000 0
0.312500 0.375000 0
0.312500 0.437500 0
0.250000 0.437500 0
0.250000 0.437500 0
0.312500 0.437500 0
0.312500 0.500000 0
0.250000 0.500000 0
0.250000 0.500000 0
0.312500 0.500000 0
0.312500 0.562500 0
0.250000 0.562500 0
0.250000 0.562500 0
0.312500 0.562500 0
0.312500 0.625000 0
0.250000 0.625000 0
0.250000 0.625000 0
0.312500 0.625000 0
0.312500 0.687500 0
0.250000 0.687500 0
0.250000 0.687500 0
0.312500 0.687500 0
0.312500 0.750000 0
0.250000 0.750000 0
0.250000 0.750000 0
0.312500 0.750000 0
0.312500 0.812500 0
0.250000 0.812500 0
0.250000 0.812500 0
0.312500 0.812500 0
0.312500 0.875000 0
0.250000 0.875000 0
0.250000 0.875000 0
0.312500 0.875000 0
0.312500 0.937500 0
0.250000 0.937500 0
0.250000 0.937500 0
0.312500 0.937500 0
0.312500 1.000000 0
0.250000 1.000000 0
0.312500 0.000000 0
0.375000 0.000000 0
0.375000 0.062500 0
0.312500 0.062500 0
0.312500 0.062500 0
0.375000 0.062500 0
0.375000 0.125000 0
0.312500 0.125000 0
0.312500 0.125000 0
0.375000 0.125000 0
0.375000 0.187500 0
0.312500 0.187500 0
0.312500 0.187500 0
0.375000 0.187500 0
0.375000 0.250000 0
0.312500 0.250000 0
0.312500 0.250000 0
0.375000 0.250000 0
0.375000 0.312500 0
0.312500 0.312500 0
0.312500 0.312500 0
0.375000 0.312500 0
0.375000 0.375000 0
0.312500 0.375000 0
0.312500 0.375000 0
0.375000 0.375000 0
0.375000 0.437500 0
0.312500 0.437500 0
0.312500 0.437500 0
0.375000 0.437500 0
0.375000 0.500000 0
0.312500 0.500000 0
0.312500 0.500000 0
0.375000 0.500000 0
0.375000 0.562500 0
0.312500 0.562500 0
0.312500 0.562500 0
0.375000 0.562500 0
0.375000 0.625000 0
0.312500 0.625000 0
0.312500 0.625000 0
0.375000 0.625000 0
0.375000 0.687500 0
0.312500 0.687500 0
0.312500 0.687500 0
0.375000 0.687500 0
0.375000 0.750000 0
0.312500 0.750000 0
0.312500 0.750000 0
0.375000 0.750000 0
0.375000 0.812500 0
0.312500 0.812500 0
0.312500 0.812500 0
0.375000 0.812500 0
0.375000 0.875000 0
0.312500 0.875000 0
0.312500 0.875000 0
0.375000 0.875000 0
0.375000 0.937500 0
0.312500 0.937500 0
0.312500 0.937500 0
0.375000 0.937500 0
0.375000 1.000000 0
0.312500 1.000000 0
0.375000 0.000000 0
0.437500 0.000000 0
0.437500 0.062500 0
0.375000 0.062500 0
0.375000 0.062500 0
0.437500 0.062500 0
0.437500 0.125000 0
0.375000 0.125000 0
0.375000 0.125000 0
0.437500 0.125000 0
0.437500 0.187500 0
0.375000 0.187500 0
0.375000 0.187500 0
0.437500 0.187500 0
0.437500 0.250000 0
0.375000 0.250000 0
0.375000 0.250000 0
0.437500 0.250000 0
0.437500 0.312500 0
0.375000 0.312500 0
0.375000 0.312500 0
0.437500 0.312500 0
0.437500 0.375000 0
0.375000 0.375000 0
0.375000 0.375000 0
0.437500 0.375000 0
0.437500 0.437500 0
0.375000 0.437500 0
0.375000 0.437500 0
0.437500 0.437500 0
0.437500 0.500000 0
0.375000 0.500000 0
0.375000 0.500000 0
0.437500 0.500000 0
0.437500 0.562500 0
0.375000 0.562500 0
0.375000 0.562500 0
0.437500 0.562500 0
0.437500 0.625000 0
0.375000 0.625000 0
0.375000 0.625000 0
0.437500 0.625000 0
0.437500 0.687500 0
0.375000 0.687500 0
0.375000 0.687500 0
0.437500 0.687500 0
0.437500 0.750000 0
0.375000 0.750000 0
0.375000 0.750000 0
0.437500 0.750000 0
0.437500 0.812500 0
0.375000 0.812500 0
0.375000 0.812500 0
0.437500 0.812500 0
0.437500 0.875000 0
0.375000 0.875000 0
0.375000 0.875000 0
0.437500 0.875000 0
0.437500 0.937500 0
0.375000 0.937500 0
0.375000 0.937500 0
0.437500 0.937500 0
0.437500 1.000000 0
0.375000 1.000000 0
0.437500 0.000000 0
0.500000 0.000000 0
0.500000 0.062500 0
0.437500 0.062500 0
0.437500 0.062500 0
0.500000 0.062500 0
0.500000 0.125000 0
0.437500 0.125000 0
0.437500 0.125000 0
0.500000 0.125000 0
0.500000 0.187500 0
0.437500 0.187500 0
0.437500 0.187500 0
0.500000 0.187500 0
0.500000 0.250000 0
0.437500 0.250000 0
0.437500 0.250000 0
0.500000 0.250000 0
0.500000 0.312500 0
0.437500 0.312500 0
0.437500 0.312500 0
0.500000 0.312500 0
0.500000 0.375000 0
0.437500 0.375000 0
0.437500 0.375000 0
0.500000 0.375000 0
0.500000 0.437500 0
0.437500 0.437500 0
0.437500 0.437500 0
0.500000 0.437500 0
0.500000 0.500000 0
0.437500 0.500000 0
0.437500 0.500000 0
0.500000 0.500000 0
0.500000 0.562500 0
0.437500 0.562500 0
0.437500 0.562500 0
0.500000 0.562500 0
0.500000 0.625000 0
0.437500 0.625000 0
0.437500 0.625000 0
0.500000 0.625000 0
0.500000 0.687500 0
0.437500 0.687500 0
0.437500 0.687500 0
0.500000 0.687500 0
0.500000 0.750000 0
[...]
POINT_DATA 10240
VECTORS vel FLOAT
-4.126729e-04 5.184930e-04 0.000000e+00
6.723836e-04 -9.686193e-05 0.000000e+00
2.356893e-01 -2.048377e-03 0.000000e+00
2.343947e-01 -5.540086e-04 0.000000e+00
2.343947e-01 -5.540086e-04 0.000000e+00
2.356893e-01 -2.048377e-03 0.000000e+00
4.375411e-01 -2.892322e-03 0.000000e+00
4.374619e-01 -6.161646e-04 0.000000e+00
4.374619e-01 -6.161646e-04 0.000000e+00
4.375411e-01 -2.892322e-03 0.000000e+00
6.088289e-01 -3.031141e-03 0.000000e+00
6.092996e-01 -4.497534e-04 0.000000e+00
6.092996e-01 -4.497534e-04 0.000000e+00
6.088289e-01 -3.031141e-03 0.000000e+00
7.493020e-01 -2.737698e-03 0.000000e+00
7.499252e-01 -2.830257e-04 0.000000e+00
7.499252e-01 -2.830257e-04 0.000000e+00
7.493020e-01 -2.737698e-03 0.000000e+00
8.587355e-01 -2.144899e-03 0.000000e+00
8.593140e-01 -1.399480e-04 0.000000e+00
8.593140e-01 -1.399480e-04 0.000000e+00
8.587355e-01 -2.144899e-03 0.000000e+00
9.369383e-01 -1.467513e-03 0.000000e+00
9.374865e-01 -6.515683e-05 0.000000e+00
9.374865e-01 -6.515683e-05 0.000000e+00
9.369383e-01 -1.467513e-03 0.000000e+00
9.838450e-01 -7.415689e-04 0.000000e+00
9.843825e-01 -2.499666e-05 0.000000e+00
9.843825e-01 -2.499666e-05 0.000000e+00
9.838450e-01 -7.415689e-04 0.000000e+00
9.994763e-01 8.501247e-06 0.000000e+00
1.000012e+00 9.530052e-07 0.000000e+00
1.000012e+00 9.530052e-07 0.000000e+00
9.994763e-01 8.501247e-06 0.000000e+00
9.838416e-01 7.590636e-04 0.000000e+00
9.843828e-01 2.704217e-05 0.000000e+00
9.843828e-01 2.704217e-05 0.000000e+00
9.838416e-01 7.590636e-04 0.000000e+00
9.369318e-01 1.486477e-03 0.000000e+00
9.374865e-01 6.761795e-05 0.000000e+00
9.374865e-01 6.761795e-05 0.000000e+00
9.369318e-01 1.486477e-03 0.000000e+00
8.587276e-01 2.166335e-03 0.000000e+00
8.593133e-01 1.431154e-04 0.000000e+00
8.593133e-01 1.431154e-04 0.000000e+00
8.587276e-01 2.166335e-03 0.000000e+00
7.492961e-01 2.762339e-03 0.000000e+00
7.499236e-01 2.874070e-04 0.000000e+00
7.499236e-01 2.874070e-04 0.000000e+00
7.492961e-01 2.762339e-03 0.000000e+00
6.088240e-01 3.057488e-03 0.000000e+00
6.092988e-01 4.560119e-04 0.000000e+00
6.092988e-01 4.560119e-04 0.000000e+00
6.088240e-01 3.057488e-03 0.000000e+00
4.375446e-01 2.917484e-03 0.000000e+00
4.374617e-01 6.237132e-04 0.000000e+00
4.374617e-01 6.237132e-04 0.000000e+00
4.375446e-01 2.917484e-03 0.000000e+00
2.357041e-01 2.065240e-03 0.000000e+00
2.343951e-01 5.592925e-04 0.000000e+00
2.343951e-01 5.592925e-04 0.000000e+00
2.357041e-01 2.065240e-03 0.000000e+00
6.782009e-04 9.758850e-05 0.000000e+00
-4.164700e-04 -5.227558e-04 0.000000e+00
6.723836e-04 -9.686193e-05 0.000000e+00
1.093980e-03 -5.768433e-05 0.000000e+00
2.369972e-01 -1.291600e-03 0.000000e+00
2.356893e-01 -2.048377e-03 0.000000e+00
2.356893e-01 -2.048377e-03 0.000000e+00
2.369972e-01 -1.291600e-03 0.000000e+00
4.382592e-01 -2.377709e-03 0.000000e+00
4.375411e-01 -2.892322e-03 0.000000e+00
4.375411e-01 -2.892322e-03 0.000000e+00
4.382592e-01 -2.377709e-03 0.000000e+00
6.088772e-01 -2.893410e-03 0.000000e+00
6.088289e-01 -3.031141e-03 0.000000e+00
6.088289e-01 -3.031141e-03 0.000000e+00
6.088772e-01 -2.893410e-03 0.000000e+00
7.488951e-01 -2.853284e-03 0.000000e+00
7.493020e-01 -2.737698e-03 0.000000e+00
7.493020e-01 -2.737698e-03 0.000000e+00
7.488951e-01 -2.853284e-03 0.000000e+00
8.580649e-01 -2.398890e-03 0.000000e+00
8.587355e-01 -2.144899e-03 0.000000e+00
8.587355e-01 -2.144899e-03 0.000000e+00
8.580649e-01 -2.398890e-03 0.000000e+00
9.361133e-01 -1.705109e-03 0.000000e+00
9.369383e-01 -1.467513e-03 0.000000e+00
9.369383e-01 -1.467513e-03 0.000000e+00
9.361133e-01 -1.705109e-03 0.000000e+00
9.829396e-01 -8.729626e-04 0.000000e+00
9.838450e-01 -7.415689e-04 0.000000e+00
9.838450e-01 -7.415689e-04 0.000000e+00
9.829396e-01 -8.729626e-04 0.000000e+00
9.985464e-01 2.269156e-05 0.000000e+00
9.994763e-01 8.501247e-06 0.000000e+00
9.994763e-01 8.501247e-06 0.000000e+00
9.985464e-01 2.269156e-05 0.000000e+00
9.829371e-01 9.186009e-04 0.000000e+00
9.838416e-01 7.590636e-04 0.000000e+00
9.838416e-01 7.590636e-04 0.000000e+00
9.829371e-01 9.186009e-04 0.000000e+00
9.361087e-01 1.751277e-03 0.000000e+00
9.369318e-01 1.486477e-03 0.000000e+00
9.369318e-01 1.486477e-03 0.000000e+00
9.361087e-01 1.751277e-03 0.000000e+00
8.580590e-01 2.444523e-03 0.000000e+00
8.587276e-01 2.166335e-03 0.000000e+00
8.587276e-01 2.166335e-03 0.000000e+00
8.580590e-01 2.444523e-03 0.000000e+00
7.488822e-01 2.873572e-03 0.000000e+00
7.492961e-01 2.762339e-03 0.000000e+00
7.492961e-01 2.762339e-03 0.000000e+00
7.488822e-01 2.873572e-03 0.000000e+00
6.088734e-01 2.912276e-03 0.000000e+00
6.088240e-01 3.057488e-03 0.000000e+00
6.088240e-01 3.057488e-03 0.000000e+00
6.088734e-01 2.912276e-03 0.000000e+00
4.382677e-01 2.392314e-03 0.000000e+00
4.375446e-01 2.917484e-03 0.000000e+00
4.375446e-01 2.917484e-03 0.000000e+00
4.382677e-01 2.392314e-03 0.000000e+00
2.370215e-01 1.300075e-03 0.000000e+00
2.357041e-01 2.065240e-03 0.000000e+00
2.357041e-01 2.065240e-03 0.000000e+00
2.370215e-01 1.300075e-03 0.000000e+00
1.103110e-03 5.798976e-05 0.000000e+00
6.782009e-04 9.758850e-05 0.000000e+00
1.093980e-03 -5.768433e-05 0.000000e+00
1.151847e-03 6.144335e-06 0.000000e+00
2.378409e-01 -3.190412e-04 0.000000e+00
2.369972e-01 -1.291600e-03 0.000000e+00
2.369972e-01 -1.291600e-03 0.000000e+00
2.378409e-01 -3.190412e-04 0.000000e+00
4.390500e-01 -1.067851e-03 0.000000e+00
4.382592e-01 -2.377709e-03 0.000000e+00
4.382592e-01 -2.377709e-03 0.000000e+00
4.390500e-01 -1.067851e-03 0.000000e+00
6.091736e-01 -1.630063e-03 0.000000e+00
6.088772e-01 -2.893410e-03 0.000000e+00
6.088772e-01 -2.893410e-03 0.000000e+00
6.091736e-01 -1.630063e-03 0.000000e+00
7.487588e-01 -1.834918e-03 0.000000e+00
7.488951e-01 -2.853284e-03 0.000000e+00
7.488951e-01 -2.853284e-03 0.000000e+00
7.487588e-01 -1.834918e-03 0.000000e+00
8.576388e-01 -1.677282e-03 0.000000e+00
8.580649e-01 -2.398890e-03 0.000000e+00
8.580649e-01 -2.398890e-03 0.000000e+00
8.576388e-01 -1.677282e-03 0.000000e+00
9.354861e-01 -1.251868e-03 0.000000e+00
9.361133e-01 -1.705109e-03 0.000000e+00
9.361133e-01 -1.705109e-03 0.000000e+00
9.354861e-01 -1.251868e-03 0.000000e+00
9.822094e-01 -6.605797e-04 0.000000e+00
9.829396e-01 -8.729626e-04 0.000000e+00
9.829396e-01 -8.729626e-04 0.000000e+00
9.822094e-01 -6.605797e-04 0.000000e+00
9.977823e-01 6.563979e-06 0.000000e+00
9.985464e-01 2.269156e-05 0.000000e+00
9.985464e-01 2.269156e-05 0.000000e+00
9.977823e-01 6.563979e-06 0.000000e+00
9.822041e-01 6.736663e-04 0.000000e+00
9.829371e-01 9.186009e-04 0.000000e+00
9.829371e-01 9.186009e-04 0.000000e+00
9.822041e-01 6.736663e-04 0.000000e+00
9.354762e-01 1.264740e-03 0.000000e+00
9.361087e-01 1.751277e-03 0.000000e+00
9.361087e-01 1.751277e-03 0.000000e+00
9.354762e-01 1.264740e-03 0.000000e+00
8.576271e-01 1.689452e-03 0.000000e+00
8.580590e-01 2.444523e-03 0.000000e+00
8.580590e-01 2.444523e-03 0.000000e+00
8.576271e-01 1.689452e-03 0.000000e+00
7.487533e-01 1.845211e-03 0.000000e+00
7.488822e-01 2.873572e-03 0.000000e+00
7.488822e-01 2.873572e-03 0.000000e+00
7.487533e-01 1.845211e-03 0.000000e+00
6.091732e-01 1.636837e-03 0.000000e+00
6.088734e-01 2.912276e-03 0.000000e+00
6.088734e-01 2.912276e-03 0.000000e+00
6.091732e-01 1.636837e-03 0.000000e+00
4.390635e-01 1.070199e-03 0.000000e+00
4.382677e-01 2.392314e-03 0.000000e+00
4.382677e-01 2.392314e-03 0.000000e+00
4.390635e-01 1.070199e-03 0.000000e+00
2.378693e-01 3.185746e-04 0.000000e+00
2.370215e-01 1.300075e-03 0.000000e+00
2.370215e-01 1.300075e-03 0.000000e+00
2.378693e-01 3.185746e-04 0.000000e+00
1.160974e-03 -6.409011e-06 0.000000e+00
1.103110e-03 5.798976e-05 0.000000e+00
1.151847e-03 6.144335e-06 0.000000e+00
1.031710e-03 5.894347e-05 0.000000e+00
2.382058e-01 3.042960e-04 0.000000e+00
2.378409e-01 -3.190412e-04 0.000000e+00
2.378409e-01 -3.190412e-04 0.000000e+00
2.382058e-01 3.042960e-04 0.000000e+00
4.396653e-01 -8.786351e-05 0.000000e+00
4.390500e-01 -1.067851e-03 0.000000e+00
4.390500e-01 -1.067851e-03 0.000000e+00
4.396653e-01 -8.786351e-05 0.000000e+00
6.096345e-01 -5.867818e-04 0.000000e+00
6.091736e-01 -1.630063e-03 0.000000e+00
6.091736e-01 -1.630063e-03 0.000000e+00
6.096345e-01 -5.867818e-04 0.000000e+00
7.488885e-01 -9.515581e-04 0.000000e+00
7.487588e-01 -1.834918e-03 0.000000e+00
7.487588e-01 -1.834918e-03 0.000000e+00
7.488885e-01 -9.515581e-04 0.000000e+00
8.574637e-01 -1.005778e-03 0.000000e+00
8.576388e-01 -1.677282e-03 0.000000e+00
8.576388e-01 -1.677282e-03 0.000000e+00
8.574637e-01 -1.005778e-03 0.000000e+00
9.350962e-01 -8.152125e-04 0.000000e+00
9.354861e-01 -1.251868e-03 0.000000e+00
9.354861e-01 -1.251868e-03 0.000000e+00
9.350962e-01 -8.152125e-04 0.000000e+00
9.816909e-01 -4.499144e-04 0.000000e+00
9.822094e-01 -6.605797e-04 0.000000e+00
9.822094e-01 -6.605797e-04 0.000000e+00
9.816909e-01 -4.499144e-04 0.000000e+00
9.972252e-01 3.918773e-06 0.000000e+00
9.977823e-01 6.563979e-06 0.000000e+00
9.977823e-01 6.563979e-06 0.000000e+00
9.972252e-01 3.918773e-06 0.000000e+00
9.816903e-01 4.568334e-04 0.000000e+00
9.822041e-01 6.736663e-04 0.000000e+00
9.822041e-01 6.736663e-04 0.000000e+00
9.816903e-01 4.568334e-04 0.000000e+00
9.350961e-01 8.192960e-04 0.000000e+00
9.354762e-01 1.264740e-03 0.000000e+00
9.354762e-01 1.264740e-03 0.000000e+00
9.350961e-01 8.192960e-04 0.000000e+00
8.574661e-01 1.005355e-03 0.000000e+00
8.576271e-01 1.689452e-03 0.000000e+00
8.576271e-01 1.689452e-03 0.000000e+00
8.574661e-01 1.005355e-03 0.000000e+00
7.488950e-01 9.454678e-04 0.000000e+00
7.487533e-01 1.845211e-03 0.000000e+00
7.487533e-01 1.845211e-03 0.000000e+00
7.488950e-01 9.454678e-04 0.000000e+00
6.096385e-01 5.848050e-04 0.000000e+00
6.091732e-01 1.636837e-03 0.000000e+00
6.091732e-01 1.636837e-03 0.000000e+00
6.096385e-01 5.848050e-04 0.000000e+00
4.396818e-01 8.028693e-05 0.000000e+00
4.390635e-01 1.070199e-03 0.000000e+00
4.390635e-01 1.070199e-03 0.000000e+00
4.396818e-01 8.028693e-05 0.000000e+00
2.382343e-01 -3.094459e-04 0.000000e+00
2.378693e-01 3.185746e-04 0.000000e+00
2.378693e-01 3.185746e-04 0.000000e+00
2.382343e-01 -3.094459e-04 0.000000e+00
1.039483e-03 -5.956748e-05 0.000000e+00
1.160974e-03 -6.409011e-06 0.000000e+00
1.031710e-03 5.894347e-05 0.000000e+00
8.417031e-04 9.099226e-05 0.000000e+00
2.382028e-01 6.025797e-04 0.000000e+00
2.382058e-01 3.042960e-04 0.000000e+00
2.382058e-01 3.042960e-04 0.000000e+00
2.382028e-01 6.025797e-04 0.000000e+00
4.400991e-01 4.444028e-04 0.000000e+00
4.396653e-01 -8.786351e-05 0.000000e+00
4.396653e-01 -8.786351e-05 0.000000e+00
4.400991e-01 4.444028e-04 0.000000e+00
6.100986e-01 5.361519e-05 0.000000e+00
6.096345e-01 -5.867818e-04 0.000000e+00
6.096345e-01 -5.867818e-04 0.000000e+00
6.100986e-01 5.361519e-05 0.000000e+00
7.491583e-01 -3.296389e-04 0.000000e+00
7.488885e-01 -9.515581e-04 0.000000e+00
7.488885e-01 -9.515581e-04 0.000000e+00
7.491583e-01 -3.296389e-04 0.000000e+00
8.574731e-01 -5.001451e-04 0.000000e+00
8.574637e-01 -1.005778e-03 0.000000e+00
8.574637e-01 -1.005778e-03 0.000000e+00
8.574731e-01 -5.001451e-04 0.000000e+00
9.348999e-01 -4.608814e-04 0.000000e+00
9.350962e-01 -8.152125e-04 0.000000e+00
9.350962e-01 -8.152125e-04 0.000000e+00
9.348999e-01 -4.608814e-04 0.000000e+00
9.813635e-01 -2.702578e-04 0.000000e+00
9.816909e-01 -4.499144e-04 0.000000e+00
9.816909e-01 -4.499144e-04 0.000000e+00
9.813635e-01 -2.702578e-04 0.000000e+00
9.968516e-01 7.908752e-07 0.000000e+00
9.972252e-01 3.918773e-06 0.000000e+00
9.972252e-01 3.918773e-06 0.000000e+00
9.968516e-01 7.908752e-07 0.000000e+00
9.813645e-01 2.709990e-04 0.000000e+00
9.816903e-01 4.568334e-04 0.000000e+00
9.816903e-01 4.568334e-04 0.000000e+00
9.813645e-01 2.709990e-04 0.000000e+00
9.349025e-01 4.593200e-04 0.000000e+00
9.350961e-01 8.192960e-04 0.000000e+00
9.350961e-01 8.192960e-04 0.000000e+00
9.349025e-01 4.593200e-04 0.000000e+00
8.574787e-01 4.951240e-04 0.000000e+00
8.574661e-01 1.005355e-03 0.000000e+00
8.574661e-01 1.005355e-03 0.000000e+00
8.574787e-01 4.951240e-04 0.000000e+00
7.491666e-01 3.209588e-04 0.000000e+00
7.488950e-01 9.454678e-04 0.000000e+00
7.488950e-01 9.454678e-04 0.000000e+00
7.491666e-01 3.209588e-04 0.000000e+00
6.101063e-01 -6.004898e-05 0.000000e+00
6.096385e-01 5.848050e-04 0.000000e+00
6.096385e-01 5.848050e-04 0.000000e+00
6.101063e-01 -6.004898e-05 0.000000e+00
4.401168e-01 -4.527015e-04 0.000000e+00
4.396818e-01 8.028693e-05 0.000000e+00
4.396818e-01 8.028693e-05 0.000000e+00
4.401168e-01 -4.527015e-04 0.000000e+00
2.382285e-01 -6.092113e-04 0.000000e+00
2.382343e-01 -3.094459e-04 0.000000e+00
2.382343e-01 -3.094459e-04 0.000000e+00
2.382285e-01 -6.092113e-04 0.000000e+00
8.477461e-04 -9.175924e-05 0.000000e+00
1.039483e-03 -5.956748e-05 0.000000e+00
8.417031e-04 9.099226e-05 0.000000e+00
6.410322e-04 7.907453e-05 0.000000e+00
2.380176e-01 6.285550e-04 0.000000e+00
2.382028e-01 6.025797e-04 0.000000e+00
2.382028e-01 6.025797e-04 0.000000e+00
2.380176e-01 6.285550e-04 0.000000e+00
4.403383e-01 6.480143e-04 0.000000e+00
4.400991e-01 4.444028e-04 0.000000e+00
4.400991e-01 4.444028e-04 0.000000e+00
4.403383e-01 6.480143e-04 0.000000e+00
6.104643e-01 4.003720e-04 0.000000e+00
6.100986e-01 5.361519e-05 0.000000e+00
6.100986e-01 5.361519e-05 0.000000e+00
6.104643e-01 4.003720e-04 0.000000e+00
7.494445e-01 8.573795e-05 0.000000e+00
7.491583e-01 -3.296389e-04 0.000000e+00
7.491583e-01 -3.296389e-04 0.000000e+00
7.494445e-01 8.573795e-05 0.000000e+00
8.575784e-01 -1.159055e-04 0.000000e+00
8.574731e-01 -5.001451e-04 0.000000e+00
8.574731e-01 -5.001451e-04 0.000000e+00
8.575784e-01 -1.159055e-04 0.000000e+00
9.348427e-01 -1.736380e-04 0.000000e+00
9.348999e-01 -4.608814e-04 0.000000e+00
9.348999e-01 -4.608814e-04 0.000000e+00
9.348427e-01 -1.736380e-04 0.000000e+00
9.812039e-01 -1.171244e-04 0.000000e+00
9.813635e-01 -2.702578e-04 0.000000e+00
9.813635e-01 -2.702578e-04 0.000000e+00
9.812039e-01 -1.171244e-04 0.000000e+00
9.966582e-01 -1.659741e-06 0.000000e+00
9.968516e-01 7.908752e-07 0.000000e+00
9.968516e-01 7.908752e-07 0.000000e+00
9.966582e-01 -1.659741e-06 0.000000e+00
9.812059e-01 1.132870e-04 0.000000e+00
9.813645e-01 2.709990e-04 0.000000e+00
9.813645e-01 2.709990e-04 0.000000e+00
9.812059e-01 1.132870e-04 0.000000e+00
9.348470e-01 1.683207e-04 0.000000e+00
9.349025e-01 4.593200e-04 0.000000e+00
9.349025e-01 4.593200e-04 0.000000e+00
9.348470e-01 1.683207e-04 0.000000e+00
8.575857e-01 1.085694e-04 0.000000e+00
8.574787e-01 4.951240e-04 0.000000e+00
8.574787e-01 4.951240e-04 0.000000e+00
8.575857e-01 1.085694e-04 0.000000e+00
7.494532e-01 -9.478426e-05 0.000000e+00
7.491666e-01 3.209588e-04 0.000000e+00
7.491666e-01 3.209588e-04 0.000000e+00
7.494532e-01 -9.478426e-05 0.000000e+00
6.104741e-01 -4.087605e-04 0.000000e+00
6.101063e-01 -6.004898e-05 0.000000e+00
6.101063e-01 -6.004898e-05 0.000000e+00
6.104741e-01 -4.087605e-04 0.000000e+00
4.403556e-01 -6.569504e-04 0.000000e+00
4.401168e-01 -4.527015e-04 0.000000e+00
4.401168e-01 -4.527015e-04 0.000000e+00
4.403556e-01 -6.569504e-04 0.000000e+00
2.380395e-01 -6.349203e-04 0.000000e+00
2.382285e-01 -6.092113e-04 0.000000e+00
2.382285e-01 -6.092113e-04 0.000000e+00
2.380395e-01 -6.349203e-04 0.000000e+00
6.454661e-04 -7.961573e-05 0.000000e+00
8.477461e-04 -9.175924e-05 0.000000e+00
6.410322e-04 7.907453e-05 0.000000e+00
4.741673e-04 4.634686e-05 0.000000e+00
2.377637e-01 5.342295e-04 0.000000e+00
2.380176e-01 6.285550e-04 0.000000e+00
2.380176e-01 6.285550e-04 0.000000e+00
2.377637e-01 5.342295e-04 0.000000e+00
4.404219e-01 6.541693e-04 0.000000e+00
4.403383e-01 6.480143e-04 0.000000e+00
4.403383e-01 6.480143e-04 0.000000e+00
4.404219e-01 6.541693e-04 0.000000e+00
6.107080e-01 5.287024e-04 0.000000e+00
6.104643e-01 4.003720e-04 0.000000e+00
6.104643e-01 4.003720e-04 0.000000e+00
6.107080e-01 5.287024e-04 0.000000e+00
7.496893e-01 3.076341e-04 0.000000e+00
7.494445e-01 8.573795e-05 0.000000e+00
7.494445e-01 8.573795e-05 0.000000e+00
7.496893e-01 3.076341e-04 0.000000e+00
8.577250e-01 1.226078e-04 0.000000e+00
8.575784e-01 -1.159055e-04 0.000000e+00
8.575784e-01 -1.159055e-04 0.000000e+00
8.577250e-01 1.226078e-04 0.000000e+00
9.348819e-01 1.680260e-05 0.000000e+00
9.348427e-01 -1.736380e-04 0.000000e+00
9.348427e-01 -1.736380e-04 0.000000e+00
9.348819e-01 1.680260e-05 0.000000e+00
9.811675e-01 -1.455428e-05 0.000000e+00
9.812039e-01 -1.171244e-04 0.000000e+00
9.812039e-01 -1.171244e-04 0.000000e+00
9.811675e-01 -1.455428e-05 0.000000e+00
9.965956e-01 -3.260752e-06 0.000000e+00
9.966582e-01 -1.659741e-06 0.000000e+00
9.966582e-01 -1.659741e-06 0.000000e+00
9.965956e-01 -3.260752e-06 0.000000e+00
9.811699e-01 7.741784e-06 0.000000e+00
9.812059e-01 1.132870e-04 0.000000e+00
9.812059e-01 1.132870e-04 0.000000e+00
9.811699e-01 7.741784e-06 0.000000e+00
9.348868e-01 -2.433483e-05 0.000000e+00
9.348470e-01 1.683207e-04 0.000000e+00
9.348470e-01 1.683207e-04 0.000000e+00
9.348868e-01 -2.433483e-05 0.000000e+00
8.577325e-01 -1.309444e-04 0.000000e+00
8.575857e-01 1.085694e-04 0.000000e+00
8.575857e-01 1.085694e-04 0.000000e+00
8.577325e-01 -1.309444e-04 0.000000e+00
7.496975e-01 -3.162687e-04 0.000000e+00
7.494532e-01 -9.478426e-05 0.000000e+00
7.494532e-01 -9.478426e-05 0.000000e+00
7.496975e-01 -3.162687e-04 0.000000e+00
6.107188e-01 -5.375708e-04 0.000000e+00
6.104741e-01 -4.087605e-04 0.000000e+00
6.104741e-01 -4.087605e-04 0.000000e+00
6.107188e-01 -5.375708e-04 0.000000e+00
4.404379e-01 -6.626245e-04 0.000000e+00
4.403556e-01 -6.569504e-04 0.000000e+00
4.403556e-01 -6.569504e-04 0.000000e+00
4.404379e-01 -6.626245e-04 0.000000e+00
2.377818e-01 -5.397455e-04 0.000000e+00
2.380395e-01 -6.349203e-04 0.000000e+00
2.380395e-01 -6.349203e-04 0.000000e+00
2.377818e-01 -5.397455e-04 0.000000e+00
4.772712e-04 -4.661588e-05 0.000000e+00
6.454661e-04 -7.961573e-05 0.000000e+00
4.741673e-04 4.634686e-05 0.000000e+00
3.539392e-04 2.171666e-05 0.000000e+00
2.375154e-01 3.973584e-04 0.000000e+00
2.377637e-01 5.342295e-04 0.000000e+00
2.377637e-01 5.342295e-04 0.000000e+00
2.375154e-01 3.973584e-04 0.000000e+00
4.404075e-01 5.494445e-04 0.000000e+00
4.404219e-01 6.541693e-04 0.000000e+00
4.404219e-01 6.541693e-04 0.000000e+00
4.404075e-01 5.494445e-04 0.000000e+00
6.108431e-01 5.110000e-04 0.000000e+00
6.107080e-01 5.287024e-04 0.000000e+00
6.107080e-01 5.287024e-04 0.000000e+00
6.108431e-01 5.110000e-04 0.000000e+00
7.498685e-01 3.780858e-04 0.000000e+00
7.496893e-01 3.076341e-04 0.000000e+00
7.496893e-01 3.076341e-04 0.000000e+00
7.498685e-01 3.780858e-04 0.000000e+00
8.578683e-01 2.333188e-04 0.000000e+00
8.577250e-01 1.226078e-04 0.000000e+00
8.577250e-01 1.226078e-04 0.000000e+00
8.578683e-01 2.333188e-04 0.000000e+00
9.349676e-01 1.197600e-04 0.000000e+00
9.348819e-01 1.680260e-05 0.000000e+00
9.348819e-01 1.680260e-05 0.000000e+00
9.349676e-01 1.197600e-04 0.000000e+00
9.812061e-01 4.538156e-05 0.000000e+00
9.811675e-01 -1.455428e-05 0.000000e+00
9.811675e-01 -1.455428e-05 0.000000e+00
9.812061e-01 4.538156e-05 0.000000e+00
9.966164e-01 -4.047625e-06 0.000000e+00
9.965956e-01 -3.260752e-06 0.000000e+00
9.965956e-01 -3.260752e-06 0.000000e+00
9.966164e-01 -4.047625e-06 0.000000e+00
9.812086e-01 -5.357215e-05 0.000000e+00
9.811699e-01 7.741784e-06 0.000000e+00
9.811699e-01 7.741784e-06 0.000000e+00
9.812086e-01 -5.357215e-05 0.000000e+00
9.349725e-01 -1.281566e-04 0.000000e+00
9.348868e-01 -2.433483e-05 0.000000e+00
9.348868e-01 -2.433483e-05 0.000000e+00
9.349725e-01 -1.281566e-04 0.000000e+00
8.578754e-01 -2.417352e-04 0.000000e+00
8.577325e-01 -1.309444e-04 0.000000e+00
8.577325e-01 -1.309444e-04 0.000000e+00
8.578754e-01 -2.417352e-04 0.000000e+00
7.498757e-01 -3.860285e-04 0.000000e+00
7.496975e-01 -3.162687e-04 0.000000e+00
7.496975e-01 -3.162687e-04 0.000000e+00
7.498757e-01 -3.860285e-04 0.000000e+00
6.108538e-01 -5.194685e-04 0.000000e+00
6.107188e-01 -5.375708e-04 0.000000e+00
6.107188e-01 -5.375708e-04 0.000000e+00
6.108538e-01 -5.194685e-04 0.000000e+00
4.404216e-01 -5.568668e-04 0.000000e+00
4.404379e-01 -6.626245e-04 0.000000e+00
4.404379e-01 -6.626245e-04 0.000000e+00