# vtk DataFile Version 3.0
higtree
ASCII
DATASET UNSTRUCTURED_GRID
POINTS 10240 float
0.000000 0.000000 0
0.062500 0.000000 0
0.062500 0.062500 0
0.000000 0.062500 0
0.000000 0.062500 0
0.062500 0.062500 0
0.062500 0.125000 0
0.000000 0.125000 0
0.000000 0.125000 0
0.062500 0.125000 0
0.062500 0.187500 0
0.000000 0.187500 0
0.000000 0.187500 0
0.062500 0.187500 0
0.062500 0.250000 0
0.000000 0.250000 0
0.000000 0.250000 0
0.062500 0.250000 0
0.062500 0.312500 0
0.000000 0.312500 0
0.000000 0.312500 0
0.062500 0.312500 0
0.062500 0.375000 0
0.000000 0.375000 0
0.000000 0.375000 0
0.062500 0.375000 0
0.062500 0.437500 0
0.000000 0.437500 0
0.000000 0.437500 0
0.062500 0.437500 0
0.062500 0.500000 0
0.000000 0.500000 0
0.000000 0.500000 0
0.062500 0.500000 0
0.062500 0.562500 0
0.000000 0.562500 0
0.000000 0.562500 0
0.062500 0.562500 0
0.062500 0.625000 0
0.000000 0.625000 0
0.000000 0.625000 0
0.062500 0.625000 0
0.062500 0.687500 0
0.000000 0.687500 0
0.000000 0.687500 0
0.062500 0.687500 0
0.062500 0.750000 0
0.000000 0.750000 0
0.000000 0.750000 0
0.062500 0.750000 0
0.062500 0.812500 0
0.000000 0.812500 0
0.000000 0.812500 0
0.062500 0.812500 0
0.062500 0.875000 0
0.000000 0.875000 0
0.000000 0.875000 0
0.062500 0.875000 0
0.062500 0.937500 0
0.000000 0.937500 0
0.000000 0.937500 0
0.062500 0.937500 0
0.062500 1.000000 0
0.000000 1.000000 0
0.062500 0.000000 0
0.125000 0.000000 0
0.125000 0.062500 0
0.062500 0.062500 0
0.062500 0.062500 0
0.125000 0.062500 0
0.125000 0.125000 0
0.062500 0.125000 0
0.062500 0.125000 0
0.125000 0.125000 0
0.125000 0.187500 0
0.062500 0.187500 0
0.062500 0.187500 0
0.125000 0.187500 0
0.125000 0.250000 0
0.062500 0.250000 0
0.062500 0.250000 0
0.125000 0.250000 0
0.125000 0.312500 0
0.062500 0.312500 0
0.062500 0.312500 0
0.125000 0.312500 0
0.125000 0.375000 0
0.062500 0.375000 0
0.062500 0.375000 0
0.125000 0.375000 0
0.125000 0.437500 0
0.062500 0.437500 0
0.062500 0.437500 0
0.125000 0.437500 0
0.125000 0.500000 0
0.062500 0.500000 0
0.062500 0.500000 0
0.125000 0.500000 0
0.125000 0.562500 0
0.062500 0.562500 0
0.062500 0.562500 0
0.125000 0.562500 0
0.125000 0.625000 0
0.062500 0.625000 0
0.062500 0.625000 0
0.125000 0.625000 0
0.125000 0.687500 0
0.062500 0.687500 0
0.062500 0.687500 0
0.125000 0.687500 0
0.125000 0.750000 0
0.062500 0.750000 0
0.062500 0.750000 0
0.125000 0.750000 0
0.125000 0.812500 0
0.062500 0.812500 0
0.062500 0.812500 0
0.125000 0.812500 0
0.125000 0.875000 0
0.062500 0.875000 0
0.062500 0.875000 0
0.125000 0.875000 0
0.125000 0.937500 0
0.062500 0.937500 0
0.062500 0.937500 0
0.125000 0.937500 0
0.125000 1.000000 0
0.062500 1.000000 0
0.125000 0.000000 0
0.187500 0.000000 0
0.187500 0.062500 0
0.125000 0.062500 0
0.125000 0.062500 0
0.187500 0.062500 0
0.187500 0.125000 0
0.125000 0.125000 0
0.125000 0.125000 0
0.187500 0.125000 0
0.187500 0.187500 0
0.125000 0.187500 0
0.125000 0.187500 0
0.187500 0.187500 0
0.187500 0.250000 0
0.125000 0.250000 0
0.125000 0.250000 0
0.187500 0.250000 0
0.187500 0.312500 0
0.125000 0.312500 0
0.125000 0.312500 0
0.187500 0.312500 0
0.187500 0.375000 0
0.125000 0.375000 0
0.125000 0.375000 0
0.187500 0.375000 0
0.187500 0.437500 0
0.125000 0.437500 0
0.125000 0.437500 0
0.187500 0.437500 0
0.187500 0.500000 0
0.125000 0.500000 0
0.125000 0.500000 0
0.187500 0.500000 0
0.187500 0.562500 0
0.125000 0.562500 0
0.125000 0.562500 0
0.187500 0.562500 0
0.187500 0.625000 0
0.125000 0.625000 0
0.125000 0.625000 0
0.187500 0.625000 0
0.187500 0.687500 0
0.125000 0.687500 0
0.125000 0.687500 0
0.187500 0.687500 0
0.187500 0.750000 0
0.125000 0.750000 0
0.125000 0.750000 0
0.187500 0.750000 0
0.187500 0.812500 0
0.125000 0.812500 0
0.125000 0.812500 0
0.187500 0.812500 0
0.187500 0.875000 0
0.125000 0.875000 0
0.125000 0.875000 0
0.187500 0.875000 0
0.187500 0.937500 0
0.125000 0.937500 0
0.125000 0.937500 0
0.187500 0.937500 0
0.187500 1.000000 0
0.125000 1.000000 0
0.187500 0.000000 0
0.250000 0.000000 0
0.250000 0.062500 0
0.187500 0.062500 0
0.187500 0.062500 0
0.250000 0.062500 0
0.250000 0.125000 0
0.187500 0.125000 0
0.187500 0.125000 0
0.250000 0.125000 0
0.250000 0.187500 0
0.187500 0.187500 0
0.187500 0.187500 0
0.250000 0.187500 0
0.250000 0.250000 0
0.187500 0.250000 0
0.187500 0.250000 0
0.250000 0.250000 0
0.250000 0.312500 0
0.187500 0.312500 0
0.187500 0.312500 0
0.250000 0.312500 0
0.250000 0.375000 0
0.187500 0.375000 0
0.187500 0.375000 0
0.250000 0.375000 0
0.250000 0.437500 0
0.187500 0.437500 0
0.187500 0.437500 0
0.250000 0.437500 0
0.250000 0.500000 0
0.187500 0.500000 0
0.187500 0.500000 0
0.250000 0.500000 0
0.250000 0.562500 0
0.187500 0.562500 0
0.187500 0.562500 0
0.250000 0.562500 0
0.250000 0.625000 0
0.187500 0.625000 0
0.187500 0.625000 0
0.250000 0.625000 0
0.250000 0.687500 0
0.187500 0.687500 0
0.187500 0.687500 0
0.250000 0.687500 0
0.250000 0.750000 0
0.187500 0.750000 0
0.187500 0.750000 0
0.250000 0.750000 0
0.250000 0.812500 0
0.187500 0.812500 0
0.187500 0.812500 0
0.250000 0.812500 0
0.250000 0.875000 0
0.187500 0.875000 0
0.187500 0.875000 0
0.250000 0.875000 0
0.250000 0.937500 0
0.187500 0.937500 0
0.187500 0.937500 0
0.250000 0.937500 0
0.250000 1.000000 0
0.187500 1.000000 0
0.250000 0.000000 0
0.312500 0.000000 0
0.312500 0.062500 0
0.250000 0.062500 0
0.250000 0.062500 0
0.312500 0.062500 0
0.312500 0.125000 0
0.250000 0.125000 0
0.250000 0.125000 0
0.312500 0.125000 0
0.312500 0.187500 0
0.250000 0.187500 0
0.250000 0.187500 0
0.312500 0.187500 0
0.312500 0.250000 0
0.250000 0.250000 0
0.250000 0.250000 0
0.312500 0.250000 0
0.312500 0.312500 0
0.250000 0.312500 0
0.250000 0.312500 0
0.312500 0.312500 0
0.312500 0.375000 0
0.250000 0.375000 0
0.250000 0.375000 0
0.312500 0.375000 0
0.312500 0.437500 0
0.250000 0.437500 0
0.250000 0.437500 0
0.312500 0.437500 0
0.312500 0.500000 0
0.250000 0.500000 0
0.250000 0.500000 0
0.312500 0.500000 0
0.312500 0.562500 0
0.250000 0.562500 0
0.250000 0.562500 0
0.312500 0.562500 0
0.312500 0.625000 0
0.250000 0.625000 0
0.250000 0.625000 0
0.312500 0.625000 0
0.312500 0.687500 0
0.250000 0.687500 0
0.250000 0.687500 0
0.312500 0.687500 0
0.312500 0.750000 0
0.250000 0.750000 0
0.250000 0.750000 0
0.312500 0.750000 0
0.312500 0.812500 0
0.250000 0.812500 0
0.250000 0.812500 0
0.312500 0.812500 0
0.312500 0.875000 0
0.250000 0.875000 0
0.250000 0.875000 0
0.312500 0.875000 0
0.312500 0.937500 0
0.250000 0.937500 0
0.250000 0.937500 0
0.312500 0.937500 0
0.312500 1.000000 0
0.250000 1.000000 0
0.312500 0.000000 0
0.375000 0.000000 0
0.375000 0.062500 0
0.312500 0.062500 0
0.312500 0.062500 0
0.375000 0.062500 0
0.375000 0.125000 0
0.312500 0.125000 0
0.312500 0.125000 0
0.375000 0.125000 0
0.375000 0.187500 0
0.312500 0.187500 0
0.312500 0.187500 0
0.375000 0.187500 0
0.375000 0.250000 0
0.312500 0.250000 0
0.312500 0.250000 0
0.375000 0.250000 0
0.375000 0.312500 0
0.312500 0.312500 0
0.312500 0.312500 0
0.375000 0.312500 0
0.375000 0.375000 0
0.312500 0.375000 0
0.312500 0.375000 0
0.375000 0.375000 0
0.375000 0.437500 0
0.312500 0.437500 0
0.312500 0.437500 0
0.375000 0.437500 0
0.375000 0.500000 0
0.312500 0.500000 0
0.312500 0.500000 0
0.375000 0.500000 0
0.375000 0.562500 0
0.312500 0.562500 0
0.312500 0.562500 0
0.375000 0.562500 0
0.375000 0.625000 0
0.312500 0.625000 0
0.312500 0.625000 0
0.375000 0.625000 0
0.375000 0.687500 0
0.312500 0.687500 0
0.312500 0.687500 0
0.375000 0.687500 0
0.375000 0.750000 0
0.312500 0.750000 0
0.312500 0.750000 0
0.375000 0.750000 0
0.375000 0.812500 0
0.312500 0.812500 0
0.312500 0.812500 0
0.375000 0.812500 0
0.375000 0.875000 0
0.312500 0.875000 0
0.312500 0.875000 0
0.375000 0.875000 0
0.375000 0.937500 0
0.312500 0.937500 0
0.312500 0.937500 0
0.375000 0.937500 0
0.375000 1.000000 0
0.312500 1.000000 0
0.375000 0.000000 0
0.437500 0.000000 0
0.437500 0.062500 0
0.375000 0.062500 0
0.375000 0.062500 0
0.437500 0.062500 0
0.437500 0.125000 0
0.375000 0.125000 0
0.375000 0.125000 0
0.437500 0.125000 0
0.437500 0.187500 0
0.375000 0.187500 0
0.375000 0.187500 0
0.437500 0.187500 0
0.437500 0.250000 0
0.375000 0.250000 0
0.375000 0.250000 0
0.437500 0.250000 0
0.437500 0.312500 0
0.375000 0.312500 0
0.375000 0.312500 0
0.437500 0.312500 0
0.437500 0.375000 0
0.375000 0.375000 0
0.375000 0.375000 0
0.437500 0.375000 0
0.437500 0.437500 0
0.375000 0.437500 0
0.375000 0.437500 0
0.437500 0.437500 0
0.437500 0.500000 0
0.375000 0.500000 0
0.375000 0.500000 0
0.437500 0.500000 0
0.437500 0.562500 0
0.375000 0.562500 0
0.375000 0.562500 0
0.437500 0.562500 0
0.437500 0.625000 0
0.375000 0.625000 0
0.375000 0.625000 0
0.437500 0.625000 0
0.437500 0.687500 0
0.375000 0.687500 0
0.375000 0.687500 0
0.437500 0.687500 0
0.437500 0.750000 0
0.375000 0.750000 0
0.375000 0.750000 0
0.437500 0.750000 0
0.437500 0.812500 0
0.375000 0.812500 0
0.375000 0.812500 0
0.437500 0.812500 0
0.437500 0.875000 0
0.375000 0.875000 0
0.375000 0.875000 0
0.437500 0.875000 0
0.437500 0.937500 0
0.375000 0.937500 0
0.375000 0.937500 0
0.437500 0.937500 0
0.437500 1.000000 0
0.375000 1.000000 0
0.437500 0.000000 0
0.500000 0.000000 0
0.500000 0.062500 0
0.437500 0.062500 0
0.437500 0.062500 0
0.500000 0.062500 0
0.500000 0.125000 0
0.437500 0.125000 0
0.437500 0.125000 0
0.500000 0.125000 0
0.500000 0.187500 0
0.437500 0.187500 0
0.437500 0.187500 0
0.500000 0.187500 0
0.500000 0.250000 0
0.437500 0.250000 0
0.437500 0.250000 0
0.500000 0.250000 0
0.500000 0.312500 0
0.437500 0.312500 0
0.437500 0.312500 0
0.500000 0.312500 0
0.500000 0.375000 0
0.437500 0.375000 0
0.437500 0.375000 0
0.500000 0.375000 0
0.500000 0.437500 0
0.437500 0.437500 0
0.437500 0.437500 0
0.500000 0.437500 0
0.500000 0.500000 0
0.437500 0.500000 0
0.437500 0.500000 0
0.500000 0.500000 0
0.500000 0.562500 0
0.437500 0.562500 0
0.437500 0.562500 0
0.500000 0.562500 0
0.500000 0.625000 0
0.437500 0.625000 0
0.437500 0.625000 0
0.500000 0.625000 0
0.500000 0.687500 0
0.437500 0.687500 0
0.437500 0.687500 0
0.500000 0.687500 0
0.500000 0.750000 0
[...]
POINT_DATA 10240
VECTORS vel FLOAT
-1.703109e-03 1.531340e-03 0.000000e+00
4.131181e-04 -6.653280e-05 0.000000e+00
2.389821e-01 -4.183723e-03 0.000000e+00
2.346541e-01 -7.633520e-04 0.000000e+00
2.346541e-01 -7.633520e-04 0.000000e+00
2.389821e-01 -4.183723e-03 0.000000e+00
4.416972e-01 -8.561611e-03 0.000000e+00
4.378534e-01 -1.780890e-03 0.000000e+00
4.378534e-01 -1.780890e-03 0.000000e+00
4.416972e-01 -8.561611e-03 0.000000e+00
6.113379e-01 -1.156761e-02 0.000000e+00
6.096223e-01 -2.243012e-03 0.000000e+00
6.096223e-01 -2.243012e-03 0.000000e+00
6.113379e-01 -1.156761e-02 0.000000e+00
7.496436e-01 -1.250691e-02 0.000000e+00
7.500419e-01 -2.271689e-03 0.000000e+00
7.500419e-01 -2.271689e-03 0.000000e+00
7.496436e-01 -1.250691e-02 0.000000e+00
8.570596e-01 -1.126325e-02 0.000000e+00
8.592172e-01 -1.956561e-03 0.000000e+00
8.592172e-01 -1.956561e-03 0.000000e+00
8.570596e-01 -1.126325e-02 0.000000e+00
9.338782e-01 -8.396053e-03 0.000000e+00
9.372384e-01 -1.422321e-03 0.000000e+00
9.372384e-01 -1.422321e-03 0.000000e+00
9.338782e-01 -8.396053e-03 0.000000e+00
9.799746e-01 -4.459696e-03 0.000000e+00
9.840968e-01 -7.438904e-04 0.000000e+00
9.840968e-01 -7.438904e-04 0.000000e+00
9.799746e-01 -4.459696e-03 0.000000e+00
9.953399e-01 1.355227e-05 0.000000e+00
9.997192e-01 2.150048e-06 0.000000e+00
9.997192e-01 2.150048e-06 0.000000e+00
9.953399e-01 1.355227e-05 0.000000e+00
9.799722e-01 4.487102e-03 0.000000e+00
9.840968e-01 7.482471e-04 0.000000e+00
9.840968e-01 7.482471e-04 0.000000e+00
9.799722e-01 4.487102e-03 0.000000e+00
9.338740e-01 8.424413e-03 0.000000e+00
9.372384e-01 1.426822e-03 0.000000e+00
9.372384e-01 1.426822e-03 0.000000e+00
9.338740e-01 8.424413e-03 0.000000e+00
8.570531e-01 1.129365e-02 0.000000e+00
8.592165e-01 1.961362e-03 0.000000e+00
8.592165e-01 1.961362e-03 0.000000e+00
8.570531e-01 1.129365e-02 0.000000e+00
7.496383e-01 1.254017e-02 0.000000e+00
7.500476e-01 2.277498e-03 0.000000e+00
7.500476e-01 2.277498e-03 0.000000e+00
7.496383e-01 1.254017e-02 0.000000e+00
6.113329e-01 1.160074e-02 0.000000e+00
6.096213e-01 2.250993e-03 0.000000e+00
6.096213e-01 2.250993e-03 0.000000e+00
6.113329e-01 1.160074e-02 0.000000e+00
4.417012e-01 8.591810e-03 0.000000e+00
4.378531e-01 1.790567e-03 0.000000e+00
4.378531e-01 1.790567e-03 0.000000e+00
4.417012e-01 8.591810e-03 0.000000e+00
2.390004e-01 4.204488e-03 0.000000e+00
2.346546e-01 7.706350e-04 0.000000e+00
2.346546e-01 7.706350e-04 0.000000e+00
2.390004e-01 4.204488e-03 0.000000e+00
4.210997e-04 6.739168e-05 0.000000e+00
-1.707586e-03 -1.536288e-03 0.000000e+00
4.131181e-04 -6.653280e-05 0.000000e+00
1.136119e-03 -9.633260e-05 0.000000e+00
2.432191e-01 -3.755547e-03 0.000000e+00
2.389821e-01 -4.183723e-03 0.000000e+00
2.389821e-01 -4.183723e-03 0.000000e+00
2.432191e-01 -3.755547e-03 0.000000e+00
4.459191e-01 -8.083710e-03 0.000000e+00
4.416972e-01 -8.561611e-03 0.000000e+00
4.416972e-01 -8.561611e-03 0.000000e+00
4.459191e-01 -8.083710e-03 0.000000e+00
6.136149e-01 -1.129297e-02 0.000000e+00
6.113379e-01 -1.156761e-02 0.000000e+00
6.113379e-01 -1.156761e-02 0.000000e+00
6.136149e-01 -1.129297e-02 0.000000e+00
7.495058e-01 -1.248584e-02 0.000000e+00
7.496436e-01 -1.250691e-02 0.000000e+00
7.496436e-01 -1.250691e-02 0.000000e+00
7.495058e-01 -1.248584e-02 0.000000e+00
8.548843e-01 -1.146499e-02 0.000000e+00
8.570596e-01 -1.126325e-02 0.000000e+00
8.570596e-01 -1.126325e-02 0.000000e+00
8.548843e-01 -1.146499e-02 0.000000e+00
9.302342e-01 -8.634630e-03 0.000000e+00
9.338782e-01 -8.396053e-03 0.000000e+00
9.338782e-01 -8.396053e-03 0.000000e+00
9.302342e-01 -8.634630e-03 0.000000e+00
9.754497e-01 -4.573732e-03 0.000000e+00
9.799746e-01 -4.459696e-03 0.000000e+00
9.799746e-01 -4.459696e-03 0.000000e+00
9.754497e-01 -4.573732e-03 0.000000e+00
9.905199e-01 9.197481e-05 0.000000e+00
9.953399e-01 1.355227e-05 0.000000e+00
9.953399e-01 1.355227e-05 0.000000e+00
9.905199e-01 9.197481e-05 0.000000e+00
9.754498e-01 4.748224e-03 0.000000e+00
9.799722e-01 4.487102e-03 0.000000e+00
9.799722e-01 4.487102e-03 0.000000e+00
9.754498e-01 4.748224e-03 0.000000e+00
9.302340e-01 8.780504e-03 0.000000e+00
9.338740e-01 8.424413e-03 0.000000e+00
9.338740e-01 8.424413e-03 0.000000e+00
9.302340e-01 8.780504e-03 0.000000e+00
8.548825e-01 1.156243e-02 0.000000e+00
8.570531e-01 1.129365e-02 0.000000e+00
8.570531e-01 1.129365e-02 0.000000e+00
8.548825e-01 1.156243e-02 0.000000e+00
7.494993e-01 1.251010e-02 0.000000e+00
7.496383e-01 1.254017e-02 0.000000e+00
7.496383e-01 1.254017e-02 0.000000e+00
7.494993e-01 1.251010e-02 0.000000e+00
6.136138e-01 1.131379e-02 0.000000e+00
6.113329e-01 1.160074e-02 0.000000e+00
6.113329e-01 1.160074e-02 0.000000e+00
6.136138e-01 1.131379e-02 0.000000e+00
4.459299e-01 8.098218e-03 0.000000e+00
4.417012e-01 8.591810e-03 0.000000e+00
4.417012e-01 8.591810e-03 0.000000e+00
4.459299e-01 8.098218e-03 0.000000e+00
2.432481e-01 3.763132e-03 0.000000e+00
2.390004e-01 4.204488e-03 0.000000e+00
2.390004e-01 4.204488e-03 0.000000e+00
2.432481e-01 3.763132e-03 0.000000e+00
1.147869e-03 9.642949e-05 0.000000e+00
4.210997e-04 6.739168e-05 0.000000e+00
1.136119e-03 -9.633260e-05 0.000000e+00
1.456462e-03 -4.063195e-05 0.000000e+00
2.467547e-01 -2.745585e-03 0.000000e+00
2.432191e-01 -3.755547e-03 0.000000e+00
2.432191e-01 -3.755547e-03 0.000000e+00
2.467547e-01 -2.745585e-03 0.000000e+00
4.495901e-01 -6.052304e-03 0.000000e+00
4.459191e-01 -8.083710e-03 0.000000e+00
4.459191e-01 -8.083710e-03 0.000000e+00
4.495901e-01 -6.052304e-03 0.000000e+00
6.157848e-01 -8.709374e-03 0.000000e+00
6.136149e-01 -1.129297e-02 0.000000e+00
6.136149e-01 -1.129297e-02 0.000000e+00
6.157848e-01 -8.709374e-03 0.000000e+00
7.496808e-01 -9.936828e-03 0.000000e+00
7.495058e-01 -1.248584e-02 0.000000e+00
7.495058e-01 -1.248584e-02 0.000000e+00
7.496808e-01 -9.936828e-03 0.000000e+00
8.532430e-01 -9.372375e-03 0.000000e+00
8.548843e-01 -1.146499e-02 0.000000e+00
8.548843e-01 -1.146499e-02 0.000000e+00
8.532430e-01 -9.372375e-03 0.000000e+00
9.271028e-01 -7.220539e-03 0.000000e+00
9.302342e-01 -8.634630e-03 0.000000e+00
9.302342e-01 -8.634630e-03 0.000000e+00
9.271028e-01 -7.220539e-03 0.000000e+00
9.714149e-01 -3.906201e-03 0.000000e+00
9.754497e-01 -4.573732e-03 0.000000e+00
9.754497e-01 -4.573732e-03 0.000000e+00
9.714149e-01 -3.906201e-03 0.000000e+00
9.861901e-01 5.848058e-06 0.000000e+00
9.905199e-01 9.197481e-05 0.000000e+00
9.905199e-01 9.197481e-05 0.000000e+00
9.861901e-01 5.848058e-06 0.000000e+00
9.714145e-01 3.917867e-03 0.000000e+00
9.754498e-01 4.748224e-03 0.000000e+00
9.754498e-01 4.748224e-03 0.000000e+00
9.714145e-01 3.917867e-03 0.000000e+00
9.271045e-01 7.231930e-03 0.000000e+00
9.302340e-01 8.780504e-03 0.000000e+00
9.302340e-01 8.780504e-03 0.000000e+00
9.271045e-01 7.231930e-03 0.000000e+00
8.532508e-01 9.382417e-03 0.000000e+00
8.548825e-01 1.156243e-02 0.000000e+00
8.548825e-01 1.156243e-02 0.000000e+00
8.532508e-01 9.382417e-03 0.000000e+00
7.496960e-01 9.943789e-03 0.000000e+00
7.494993e-01 1.251010e-02 0.000000e+00
7.494993e-01 1.251010e-02 0.000000e+00
7.496960e-01 9.943789e-03 0.000000e+00
6.157881e-01 8.712295e-03 0.000000e+00
6.136138e-01 1.131379e-02 0.000000e+00
6.136138e-01 1.131379e-02 0.000000e+00
6.157881e-01 8.712295e-03 0.000000e+00
4.496066e-01 6.050791e-03 0.000000e+00
4.459299e-01 8.098218e-03 0.000000e+00
4.459299e-01 8.098218e-03 0.000000e+00
4.496066e-01 6.050791e-03 0.000000e+00
2.467870e-01 2.741408e-03 0.000000e+00
2.432481e-01 3.763132e-03 0.000000e+00
2.432481e-01 3.763132e-03 0.000000e+00
2.467870e-01 2.741408e-03 0.000000e+00
1.467272e-03 3.991677e-05 0.000000e+00
1.147869e-03 9.642949e-05 0.000000e+00
1.456462e-03 -4.063195e-05 0.000000e+00
1.637878e-03 2.325801e-05 0.000000e+00
2.494238e-01 -1.982289e-03 0.000000e+00
2.467547e-01 -2.745585e-03 0.000000e+00
2.467547e-01 -2.745585e-03 0.000000e+00
2.494238e-01 -1.982289e-03 0.000000e+00
4.523781e-01 -4.436086e-03 0.000000e+00
4.495901e-01 -6.052304e-03 0.000000e+00
4.495901e-01 -6.052304e-03 0.000000e+00
4.523781e-01 -4.436086e-03 0.000000e+00
6.176182e-01 -6.410909e-03 0.000000e+00
6.157848e-01 -8.709374e-03 0.000000e+00
6.157848e-01 -8.709374e-03 0.000000e+00
6.176182e-01 -6.410909e-03 0.000000e+00
7.500341e-01 -7.428872e-03 0.000000e+00
7.496808e-01 -9.936828e-03 0.000000e+00
7.496808e-01 -9.936828e-03 0.000000e+00
7.500341e-01 -7.428872e-03 0.000000e+00
8.520851e-01 -7.096145e-03 0.000000e+00
8.532430e-01 -9.372375e-03 0.000000e+00
8.532430e-01 -9.372375e-03 0.000000e+00
8.520851e-01 -7.096145e-03 0.000000e+00
9.247040e-01 -5.535487e-03 0.000000e+00
9.271028e-01 -7.220539e-03 0.000000e+00
9.271028e-01 -7.220539e-03 0.000000e+00
9.247040e-01 -5.535487e-03 0.000000e+00
9.681858e-01 -3.026782e-03 0.000000e+00
9.714149e-01 -3.906201e-03 0.000000e+00
9.714149e-01 -3.906201e-03 0.000000e+00
9.681858e-01 -3.026782e-03 0.000000e+00
9.826728e-01 1.984028e-06 0.000000e+00
9.861901e-01 5.848058e-06 0.000000e+00
9.861901e-01 5.848058e-06 0.000000e+00
9.826728e-01 1.984028e-06 0.000000e+00
9.681959e-01 3.029406e-03 0.000000e+00
9.714145e-01 3.917867e-03 0.000000e+00
9.714145e-01 3.917867e-03 0.000000e+00
9.681959e-01 3.029406e-03 0.000000e+00
9.247242e-01 5.534770e-03 0.000000e+00
9.271045e-01 7.231930e-03 0.000000e+00
9.271045e-01 7.231930e-03 0.000000e+00
9.247242e-01 5.534770e-03 0.000000e+00
8.521144e-01 7.091487e-03 0.000000e+00
8.532508e-01 9.382417e-03 0.000000e+00
8.532508e-01 9.382417e-03 0.000000e+00
8.521144e-01 7.091487e-03 0.000000e+00
7.500666e-01 7.421028e-03 0.000000e+00
7.496960e-01 9.943789e-03 0.000000e+00
7.496960e-01 9.943789e-03 0.000000e+00
7.500666e-01 7.421028e-03 0.000000e+00
6.176256e-01 6.404268e-03 0.000000e+00
6.157881e-01 8.712295e-03 0.000000e+00
6.157881e-01 8.712295e-03 0.000000e+00
6.176256e-01 6.404268e-03 0.000000e+00
4.523972e-01 4.414015e-03 0.000000e+00
4.496066e-01 6.050791e-03 0.000000e+00
4.496066e-01 6.050791e-03 0.000000e+00
4.523972e-01 4.414015e-03 0.000000e+00
2.494546e-01 1.973750e-03 0.000000e+00
2.467870e-01 2.741408e-03 0.000000e+00
2.467870e-01 2.741408e-03 0.000000e+00
2.494546e-01 1.973750e-03 0.000000e+00
1.646324e-03 -2.429229e-05 0.000000e+00
1.467272e-03 3.991677e-05 0.000000e+00
1.637878e-03 2.325801e-05 0.000000e+00
1.715032e-03 8.836070e-05 0.000000e+00
2.513625e-01 -1.447319e-03 0.000000e+00
2.494238e-01 -1.982289e-03 0.000000e+00
2.494238e-01 -1.982289e-03 0.000000e+00
2.513625e-01 -1.447319e-03 0.000000e+00
4.545146e-01 -3.330696e-03 0.000000e+00
4.523781e-01 -4.436086e-03 0.000000e+00
4.523781e-01 -4.436086e-03 0.000000e+00
4.545146e-01 -3.330696e-03 0.000000e+00
6.190518e-01 -4.874558e-03 0.000000e+00
6.176182e-01 -6.410909e-03 0.000000e+00
6.176182e-01 -6.410909e-03 0.000000e+00
6.190518e-01 -4.874558e-03 0.000000e+00
7.503684e-01 -5.675873e-03 0.000000e+00
7.500341e-01 -7.428872e-03 0.000000e+00
7.500341e-01 -7.428872e-03 0.000000e+00
7.503684e-01 -5.675873e-03 0.000000e+00
8.512593e-01 -5.466834e-03 0.000000e+00
8.520851e-01 -7.096145e-03 0.000000e+00
8.520851e-01 -7.096145e-03 0.000000e+00
8.512593e-01 -5.466834e-03 0.000000e+00
9.228903e-01 -4.280792e-03 0.000000e+00
9.247040e-01 -5.535487e-03 0.000000e+00
9.247040e-01 -5.535487e-03 0.000000e+00
9.228903e-01 -4.280792e-03 0.000000e+00
9.657091e-01 -2.345086e-03 0.000000e+00
9.681858e-01 -3.026782e-03 0.000000e+00
9.681858e-01 -3.026782e-03 0.000000e+00
9.657091e-01 -2.345086e-03 0.000000e+00
9.799613e-01 -1.442874e-06 0.000000e+00
9.826728e-01 1.984028e-06 0.000000e+00
9.826728e-01 1.984028e-06 0.000000e+00
9.799613e-01 -1.442874e-06 0.000000e+00
9.657196e-01 2.341557e-03 0.000000e+00
9.681959e-01 3.029406e-03 0.000000e+00
9.681959e-01 3.029406e-03 0.000000e+00
9.657196e-01 2.341557e-03 0.000000e+00
9.229106e-01 4.275766e-03 0.000000e+00
9.247242e-01 5.534770e-03 0.000000e+00
9.247242e-01 5.534770e-03 0.000000e+00
9.229106e-01 4.275766e-03 0.000000e+00
8.512874e-01 5.460119e-03 0.000000e+00
8.521144e-01 7.091487e-03 0.000000e+00
8.521144e-01 7.091487e-03 0.000000e+00
8.512874e-01 5.460119e-03 0.000000e+00
7.503980e-01 5.667729e-03 0.000000e+00
7.500666e-01 7.421028e-03 0.000000e+00
7.500666e-01 7.421028e-03 0.000000e+00
7.503980e-01 5.667729e-03 0.000000e+00
6.190623e-01 4.865390e-03 0.000000e+00
6.176256e-01 6.404268e-03 0.000000e+00
6.176256e-01 6.404268e-03 0.000000e+00
6.190623e-01 4.865390e-03 0.000000e+00
4.545343e-01 3.320246e-03 0.000000e+00
4.523972e-01 4.414015e-03 0.000000e+00
4.523972e-01 4.414015e-03 0.000000e+00
4.545343e-01 3.320246e-03 0.000000e+00
2.513893e-01 1.438907e-03 0.000000e+00
2.494546e-01 1.973750e-03 0.000000e+00
2.494546e-01 1.973750e-03 0.000000e+00
2.513893e-01 1.438907e-03 0.000000e+00
1.721020e-03 -8.938324e-05 0.000000e+00
1.646324e-03 -2.429229e-05 0.000000e+00
1.715032e-03 8.836070e-05 0.000000e+00
1.785390e-03 8.585055e-05 0.000000e+00
2.528230e-01 -1.092706e-03 0.000000e+00
2.513625e-01 -1.447319e-03 0.000000e+00
2.513625e-01 -1.447319e-03 0.000000e+00
2.528230e-01 -1.092706e-03 0.000000e+00
4.561358e-01 -2.497504e-03 0.000000e+00
4.545146e-01 -3.330696e-03 0.000000e+00
4.545146e-01 -3.330696e-03 0.000000e+00
4.561358e-01 -2.497504e-03 0.000000e+00
6.201562e-01 -3.659872e-03 0.000000e+00
6.190518e-01 -4.874558e-03 0.000000e+00
6.190518e-01 -4.874558e-03 0.000000e+00
6.201562e-01 -3.659872e-03 0.000000e+00
7.506477e-01 -4.270506e-03 0.000000e+00
7.503684e-01 -5.675873e-03 0.000000e+00
7.503684e-01 -5.675873e-03 0.000000e+00
7.506477e-01 -4.270506e-03 0.000000e+00
8.506459e-01 -4.124922e-03 0.000000e+00
8.512593e-01 -5.466834e-03 0.000000e+00
8.512593e-01 -5.466834e-03 0.000000e+00
8.506459e-01 -4.124922e-03 0.000000e+00
9.214968e-01 -3.238514e-03 0.000000e+00
9.228903e-01 -4.280792e-03 0.000000e+00
9.228903e-01 -4.280792e-03 0.000000e+00
9.214968e-01 -3.238514e-03 0.000000e+00
9.637964e-01 -1.776728e-03 0.000000e+00
9.657091e-01 -2.345086e-03 0.000000e+00
9.657091e-01 -2.345086e-03 0.000000e+00
9.637964e-01 -1.776728e-03 0.000000e+00
9.778662e-01 -3.942076e-06 0.000000e+00
9.799613e-01 -1.442874e-06 0.000000e+00
9.799613e-01 -1.442874e-06 0.000000e+00
9.778662e-01 -3.942076e-06 0.000000e+00
9.638063e-01 1.768814e-03 0.000000e+00
9.657196e-01 2.341557e-03 0.000000e+00
9.657196e-01 2.341557e-03 0.000000e+00
9.638063e-01 1.768814e-03 0.000000e+00
9.215157e-01 3.230523e-03 0.000000e+00
9.229106e-01 4.275766e-03 0.000000e+00
9.229106e-01 4.275766e-03 0.000000e+00
9.215157e-01 3.230523e-03 0.000000e+00
8.506719e-01 4.116917e-03 0.000000e+00
8.512874e-01 5.460119e-03 0.000000e+00
8.512874e-01 5.460119e-03 0.000000e+00
8.506719e-01 4.116917e-03 0.000000e+00
7.506745e-01 4.262485e-03 0.000000e+00
7.503980e-01 5.667729e-03 0.000000e+00
7.503980e-01 5.667729e-03 0.000000e+00
7.506745e-01 4.262485e-03 0.000000e+00
6.201683e-01 3.650655e-03 0.000000e+00
6.190623e-01 4.865390e-03 0.000000e+00
6.190623e-01 4.865390e-03 0.000000e+00
6.201683e-01 3.650655e-03 0.000000e+00
4.561549e-01 2.488091e-03 0.000000e+00
4.545343e-01 3.320246e-03 0.000000e+00
4.545343e-01 3.320246e-03 0.000000e+00
4.561549e-01 2.488091e-03 0.000000e+00
2.528455e-01 1.085922e-03 0.000000e+00
2.513893e-01 1.438907e-03 0.000000e+00
2.513893e-01 1.438907e-03 0.000000e+00
2.528455e-01 1.085922e-03 0.000000e+00
1.789503e-03 -8.641420e-05 0.000000e+00
1.721020e-03 -8.938324e-05 0.000000e+00
1.785390e-03 8.585055e-05 0.000000e+00
1.838678e-03 6.157129e-05 0.000000e+00
2.538949e-01 -7.948968e-04 0.000000e+00
2.528230e-01 -1.092706e-03 0.000000e+00
2.528230e-01 -1.092706e-03 0.000000e+00
2.538949e-01 -7.948968e-04 0.000000e+00
4.573238e-01 -1.803077e-03 0.000000e+00
4.561358e-01 -2.497504e-03 0.000000e+00
4.561358e-01 -2.497504e-03 0.000000e+00
4.573238e-01 -1.803077e-03 0.000000e+00
6.209753e-01 -2.647768e-03 0.000000e+00
6.201562e-01 -3.659872e-03 0.000000e+00
6.201562e-01 -3.659872e-03 0.000000e+00
6.209753e-01 -2.647768e-03 0.000000e+00
7.508591e-01 -3.095745e-03 0.000000e+00
7.506477e-01 -4.270506e-03 0.000000e+00
7.506477e-01 -4.270506e-03 0.000000e+00
7.508591e-01 -3.095745e-03 0.000000e+00
8.501982e-01 -2.990965e-03 0.000000e+00
8.506459e-01 -4.124922e-03 0.000000e+00
8.506459e-01 -4.124922e-03 0.000000e+00
8.501982e-01 -2.990965e-03 0.000000e+00
9.204745e-01 -2.352247e-03 0.000000e+00
9.214968e-01 -3.238514e-03 0.000000e+00
9.214968e-01 -3.238514e-03 0.000000e+00
9.204745e-01 -2.352247e-03 0.000000e+00
9.623844e-01 -1.293368e-03 0.000000e+00
9.637964e-01 -1.776728e-03 0.000000e+00
9.637964e-01 -1.776728e-03 0.000000e+00
9.623844e-01 -1.293368e-03 0.000000e+00
9.763174e-01 -5.707157e-06 0.000000e+00
9.778662e-01 -3.942076e-06 0.000000e+00
9.778662e-01 -3.942076e-06 0.000000e+00
9.763174e-01 -5.707157e-06 0.000000e+00
9.623931e-01 1.282236e-03 0.000000e+00
9.638063e-01 1.768814e-03 0.000000e+00
9.638063e-01 1.768814e-03 0.000000e+00
9.623931e-01 1.282236e-03 0.000000e+00
9.204913e-01 2.341880e-03 0.000000e+00
9.215157e-01 3.230523e-03 0.000000e+00
9.215157e-01 3.230523e-03 0.000000e+00
9.204913e-01 2.341880e-03 0.000000e+00
8.502213e-01 2.981654e-03 0.000000e+00
8.506719e-01 4.116917e-03 0.000000e+00
8.506719e-01 4.116917e-03 0.000000e+00
8.502213e-01 2.981654e-03 0.000000e+00
7.508826e-01 3.087646e-03 0.000000e+00
7.506745e-01 4.262485e-03 0.000000e+00
7.506745e-01 4.262485e-03 0.000000e+00
7.508826e-01 3.087646e-03 0.000000e+00
6.209879e-01 2.638987e-03 0.000000e+00
6.201683e-01 3.650655e-03 0.000000e+00
6.201683e-01 3.650655e-03 0.000000e+00
6.209879e-01 2.638987e-03 0.000000e+00
4.573414e-01 1.794941e-03 0.000000e+00
4.561549e-01 2.488091e-03 0.000000e+00
4.561549e-01 2.488091e-03 0.000000e+00
4.573414e-01 1.794941e-03 0.000000e+00
2.539137e-01 7.896839e-04 0.000000e+00
2.528455e-01 1.085922e-03 0.000000e+00
2.528455e-01 1.085922e-03 0.000000e+00
2.539137e-01 7.896839e-04 0.000000e+00
1.841455e-03 -6.174263e-05 0.000000e+00
1.789503e-03 -8.641420e-05 0.000000e+00
1.838678e-03 6.157129e-05 0.000000e+00
1.874102e-03 4.848328e-05 0.000000e+00
2.546576e-01 -5.575193e-04 0.000000e+00
2.538949e-01 -7.948968e-04 0.000000e+00
2.538949e-01 -7.948968e-04 0.000000e+00
2.546576e-01 -5.575193e-04 0.000000e+00
4.581712e-01 -1.264275e-03 0.000000e+00
4.573238e-01 -1.803077e-03 0.000000e+00
4.573238e-01 -1.803077e-03 0.000000e+00
4.581712e-01 -1.264275e-03 0.000000e+00
6.215637e-01 -1.864340e-03 0.000000e+00
6.209753e-01 -2.647768e-03 0.000000e+00
6.209753e-01 -2.647768e-03 0.000000e+00
6.215637e-01 -1.864340e-03 0.000000e+00
7.510138e-01 -2.185012e-03 0.000000e+00
7.508591e-01 -3.095745e-03 0.000000e+00
7.508591e-01 -3.095745e-03 0.000000e+00
7.510138e-01 -2.185012e-03 0.000000e+00
8.498817e-01 -2.115488e-03 0.000000e+00
8.501982e-01 -2.990965e-03 0.000000e+00
8.501982e-01 -2.990965e-03 0.000000e+00
8.498817e-01 -2.115488e-03 0.000000e+00
9.197465e-01 -1.665532e-03 0.000000e+00
9.204745e-01 -2.352247e-03 0.000000e+00
9.204745e-01 -2.352247e-03 0.000000e+00
9.197465e-01 -1.665532e-03 0.000000e+00
9.613764e-01 -9.176330e-04 0.000000e+00
9.623844e-01 -1.293368e-03 0.000000e+00
9.623844e-01 -1.293368e-03 0.000000e+00
9.613764e-01 -9.176330e-04 0.000000e+00
9.752098e-01 -6.303642e-06 0.000000e+00
9.763174e-01 -5.707157e-06 0.000000e+00
9.763174e-01 -5.707157e-06 0.000000e+00
9.752098e-01 -6.303642e-06 0.000000e+00
9.613839e-01 9.053820e-04 0.000000e+00
9.623931e-01 1.282236e-03 0.000000e+00
9.623931e-01 1.282236e-03 0.000000e+00
9.613839e-01 9.053820e-04 0.000000e+00
9.197608e-01 1.654311e-03 0.000000e+00
9.204913e-01 2.341880e-03 0.000000e+00
9.204913e-01 2.341880e-03 0.000000e+00
9.197608e-01 1.654311e-03 0.000000e+00
8.499015e-01 2.105797e-03 0.000000e+00
8.502213e-01 2.981654e-03 0.000000e+00
8.502213e-01 2.981654e-03 0.000000e+00
8.499015e-01 2.105797e-03 0.000000e+00
7.510338e-01 2.177084e-03 0.000000e+00
7.508826e-01 3.087646e-03 0.000000e+00
7.508826e-01 3.087646e-03 0.000000e+00
7.510338e-01 2.177084e-03 0.000000e+00
6.215758e-01 1.856371e-03 0.000000e+00
6.209879e-01 2.638987e-03 0.000000e+00
6.209879e-01 2.638987e-03 0.000000e+00
6.215758e-01 1.856371e-03 0.000000e+00
4.581869e-01 1.257505e-03 0.000000e+00
4.573414e-01 1.794941e-03 0.000000e+00
4.573414e-01 1.794941e-03 0.000000e+00