# vtk DataFile Version 3.0
higtree
ASCII
DATASET UNSTRUCTURED_GRID
POINTS 10240 float
0.000000 0.000000 0
0.062500 0.000000 0
0.062500 0.062500 0
0.000000 0.062500 0
0.000000 0.062500 0
0.062500 0.062500 0
0.062500 0.125000 0
0.000000 0.125000 0
0.000000 0.125000 0
0.062500 0.125000 0
0.062500 0.187500 0
0.000000 0.187500 0
0.000000 0.187500 0
0.062500 0.187500 0
0.062500 0.250000 0
0.000000 0.250000 0
0.000000 0.250000 0
0.062500 0.250000 0
0.062500 0.312500 0
0.000000 0.312500 0
0.000000 0.312500 0
0.062500 0.312500 0
0.062500 0.375000 0
0.000000 0.375000 0
0.000000 0.375000 0
0.062500 0.375000 0
0.062500 0.437500 0
0.000000 0.437500 0
0.000000 0.437500 0
0.062500 0.437500 0
0.062500 0.500000 0
0.000000 0.500000 0
0.000000 0.500000 0
0.062500 0.500000 0
0.062500 0.562500 0
0.000000 0.562500 0
0.000000 0.562500 0
0.062500 0.562500 0
0.062500 0.625000 0
0.000000 0.625000 0
0.000000 0.625000 0
0.062500 0.625000 0
0.062500 0.687500 0
0.000000 0.687500 0
0.000000 0.687500 0
0.062500 0.687500 0
0.062500 0.750000 0
0.000000 0.750000 0
0.000000 0.750000 0
0.062500 0.750000 0
0.062500 0.812500 0
0.000000 0.812500 0
0.000000 0.812500 0
0.062500 0.812500 0
0.062500 0.875000 0
0.000000 0.875000 0
0.000000 0.875000 0
0.062500 0.875000 0
0.062500 0.937500 0
0.000000 0.937500 0
0.000000 0.937500 0
0.062500 0.937500 0
0.062500 1.000000 0
0.000000 1.000000 0
0.062500 0.000000 0
0.125000 0.000000 0
0.125000 0.062500 0
0.062500 0.062500 0
0.062500 0.062500 0
0.125000 0.062500 0
0.125000 0.125000 0
0.062500 0.125000 0
0.062500 0.125000 0
0.125000 0.125000 0
0.125000 0.187500 0
0.062500 0.187500 0
0.062500 0.187500 0
0.125000 0.187500 0
0.125000 0.250000 0
0.062500 0.250000 0
0.062500 0.250000 0
0.125000 0.250000 0
0.125000 0.312500 0
0.062500 0.312500 0
0.062500 0.312500 0
0.125000 0.312500 0
0.125000 0.375000 0
0.062500 0.375000 0
0.062500 0.375000 0
0.125000 0.375000 0
0.125000 0.437500 0
0.062500 0.437500 0
0.062500 0.437500 0
0.125000 0.437500 0
0.125000 0.500000 0
0.062500 0.500000 0
0.062500 0.500000 0
0.125000 0.500000 0
0.125000 0.562500 0
0.062500 0.562500 0
0.062500 0.562500 0
0.125000 0.562500 0
0.125000 0.625000 0
0.062500 0.625000 0
0.062500 0.625000 0
0.125000 0.625000 0
0.125000 0.687500 0
0.062500 0.687500 0
0.062500 0.687500 0
0.125000 0.687500 0
0.125000 0.750000 0
0.062500 0.750000 0
0.062500 0.750000 0
0.125000 0.750000 0
0.125000 0.812500 0
0.062500 0.812500 0
0.062500 0.812500 0
0.125000 0.812500 0
0.125000 0.875000 0
0.062500 0.875000 0
0.062500 0.875000 0
0.125000 0.875000 0
0.125000 0.937500 0
0.062500 0.937500 0
0.062500 0.937500 0
0.125000 0.937500 0
0.125000 1.000000 0
0.062500 1.000000 0
0.125000 0.000000 0
0.187500 0.000000 0
0.187500 0.062500 0
0.125000 0.062500 0
0.125000 0.062500 0
0.187500 0.062500 0
0.187500 0.125000 0
0.125000 0.125000 0
0.125000 0.125000 0
0.187500 0.125000 0
0.187500 0.187500 0
0.125000 0.187500 0
0.125000 0.187500 0
0.187500 0.187500 0
0.187500 0.250000 0
0.125000 0.250000 0
0.125000 0.250000 0
0.187500 0.250000 0
0.187500 0.312500 0
0.125000 0.312500 0
0.125000 0.312500 0
0.187500 0.312500 0
0.187500 0.375000 0
0.125000 0.375000 0
0.125000 0.375000 0
0.187500 0.375000 0
0.187500 0.437500 0
0.125000 0.437500 0
0.125000 0.437500 0
0.187500 0.437500 0
0.187500 0.500000 0
0.125000 0.500000 0
0.125000 0.500000 0
0.187500 0.500000 0
0.187500 0.562500 0
0.125000 0.562500 0
0.125000 0.562500 0
0.187500 0.562500 0
0.187500 0.625000 0
0.125000 0.625000 0
0.125000 0.625000 0
0.187500 0.625000 0
0.187500 0.687500 0
0.125000 0.687500 0
0.125000 0.687500 0
0.187500 0.687500 0
0.187500 0.750000 0
0.125000 0.750000 0
0.125000 0.750000 0
0.187500 0.750000 0
0.187500 0.812500 0
0.125000 0.812500 0
0.125000 0.812500 0
0.187500 0.812500 0
0.187500 0.875000 0
0.125000 0.875000 0
0.125000 0.875000 0
0.187500 0.875000 0
0.187500 0.937500 0
0.125000 0.937500 0
0.125000 0.937500 0
0.187500 0.937500 0
0.187500 1.000000 0
0.125000 1.000000 0
0.187500 0.000000 0
0.250000 0.000000 0
0.250000 0.062500 0
0.187500 0.062500 0
0.187500 0.062500 0
0.250000 0.062500 0
0.250000 0.125000 0
0.187500 0.125000 0
0.187500 0.125000 0
0.250000 0.125000 0
0.250000 0.187500 0
0.187500 0.187500 0
0.187500 0.187500 0
0.250000 0.187500 0
0.250000 0.250000 0
0.187500 0.250000 0
0.187500 0.250000 0
0.250000 0.250000 0
0.250000 0.312500 0
0.187500 0.312500 0
0.187500 0.312500 0
0.250000 0.312500 0
0.250000 0.375000 0
0.187500 0.375000 0
0.187500 0.375000 0
0.250000 0.375000 0
0.250000 0.437500 0
0.187500 0.437500 0
0.187500 0.437500 0
0.250000 0.437500 0
0.250000 0.500000 0
0.187500 0.500000 0
0.187500 0.500000 0
0.250000 0.500000 0
0.250000 0.562500 0
0.187500 0.562500 0
0.187500 0.562500 0
0.250000 0.562500 0
0.250000 0.625000 0
0.187500 0.625000 0
0.187500 0.625000 0
0.250000 0.625000 0
0.250000 0.687500 0
0.187500 0.687500 0
0.187500 0.687500 0
0.250000 0.687500 0
0.250000 0.750000 0
0.187500 0.750000 0
0.187500 0.750000 0
0.250000 0.750000 0
0.250000 0.812500 0
0.187500 0.812500 0
0.187500 0.812500 0
0.250000 0.812500 0
0.250000 0.875000 0
0.187500 0.875000 0
0.187500 0.875000 0
0.250000 0.875000 0
0.250000 0.937500 0
0.187500 0.937500 0
0.187500 0.937500 0
0.250000 0.937500 0
0.250000 1.000000 0
0.187500 1.000000 0
0.250000 0.000000 0
0.312500 0.000000 0
0.312500 0.062500 0
0.250000 0.062500 0
0.250000 0.062500 0
0.312500 0.062500 0
0.312500 0.125000 0
0.250000 0.125000 0
0.250000 0.125000 0
0.312500 0.125000 0
0.312500 0.187500 0
0.250000 0.187500 0
0.250000 0.187500 0
0.312500 0.187500 0
0.312500 0.250000 0
0.250000 0.250000 0
0.250000 0.250000 0
0.312500 0.250000 0
0.312500 0.312500 0
0.250000 0.312500 0
0.250000 0.312500 0
0.312500 0.312500 0
0.312500 0.375000 0
0.250000 0.375000 0
0.250000 0.375000 0
0.312500 0.375000 0
0.312500 0.437500 0
0.250000 0.437500 0
0.250000 0.437500 0
0.312500 0.437500 0
0.312500 0.500000 0
0.250000 0.500000 0
0.250000 0.500000 0
0.312500 0.500000 0
0.312500 0.562500 0
0.250000 0.562500 0
0.250000 0.562500 0
0.312500 0.562500 0
0.312500 0.625000 0
0.250000 0.625000 0
0.250000 0.625000 0
0.312500 0.625000 0
0.312500 0.687500 0
0.250000 0.687500 0
0.250000 0.687500 0
0.312500 0.687500 0
0.312500 0.750000 0
0.250000 0.750000 0
0.250000 0.750000 0
0.312500 0.750000 0
0.312500 0.812500 0
0.250000 0.812500 0
0.250000 0.812500 0
0.312500 0.812500 0
0.312500 0.875000 0
0.250000 0.875000 0
0.250000 0.875000 0
0.312500 0.875000 0
0.312500 0.937500 0
0.250000 0.937500 0
0.250000 0.937500 0
0.312500 0.937500 0
0.312500 1.000000 0
0.250000 1.000000 0
0.312500 0.000000 0
0.375000 0.000000 0
0.375000 0.062500 0
0.312500 0.062500 0
0.312500 0.062500 0
0.375000 0.062500 0
0.375000 0.125000 0
0.312500 0.125000 0
0.312500 0.125000 0
0.375000 0.125000 0
0.375000 0.187500 0
0.312500 0.187500 0
0.312500 0.187500 0
0.375000 0.187500 0
0.375000 0.250000 0
0.312500 0.250000 0
0.312500 0.250000 0
0.375000 0.250000 0
0.375000 0.312500 0
0.312500 0.312500 0
0.312500 0.312500 0
0.375000 0.312500 0
0.375000 0.375000 0
0.312500 0.375000 0
0.312500 0.375000 0
0.375000 0.375000 0
0.375000 0.437500 0
0.312500 0.437500 0
0.312500 0.437500 0
0.375000 0.437500 0
0.375000 0.500000 0
0.312500 0.500000 0
0.312500 0.500000 0
0.375000 0.500000 0
0.375000 0.562500 0
0.312500 0.562500 0
0.312500 0.562500 0
0.375000 0.562500 0
0.375000 0.625000 0
0.312500 0.625000 0
0.312500 0.625000 0
0.375000 0.625000 0
0.375000 0.687500 0
0.312500 0.687500 0
0.312500 0.687500 0
0.375000 0.687500 0
0.375000 0.750000 0
0.312500 0.750000 0
0.312500 0.750000 0
0.375000 0.750000 0
0.375000 0.812500 0
0.312500 0.812500 0
0.312500 0.812500 0
0.375000 0.812500 0
0.375000 0.875000 0
0.312500 0.875000 0
0.312500 0.875000 0
0.375000 0.875000 0
0.375000 0.937500 0
0.312500 0.937500 0
0.312500 0.937500 0
0.375000 0.937500 0
0.375000 1.000000 0
0.312500 1.000000 0
0.375000 0.000000 0
0.437500 0.000000 0
0.437500 0.062500 0
0.375000 0.062500 0
0.375000 0.062500 0
0.437500 0.062500 0
0.437500 0.125000 0
0.375000 0.125000 0
0.375000 0.125000 0
0.437500 0.125000 0
0.437500 0.187500 0
0.375000 0.187500 0
0.375000 0.187500 0
0.437500 0.187500 0
0.437500 0.250000 0
0.375000 0.250000 0
0.375000 0.250000 0
0.437500 0.250000 0
0.437500 0.312500 0
0.375000 0.312500 0
0.375000 0.312500 0
0.437500 0.312500 0
0.437500 0.375000 0
0.375000 0.375000 0
0.375000 0.375000 0
0.437500 0.375000 0
0.437500 0.437500 0
0.375000 0.437500 0
0.375000 0.437500 0
0.437500 0.437500 0
0.437500 0.500000 0
0.375000 0.500000 0
0.375000 0.500000 0
0.437500 0.500000 0
0.437500 0.562500 0
0.375000 0.562500 0
0.375000 0.562500 0
0.437500 0.562500 0
0.437500 0.625000 0
0.375000 0.625000 0
0.375000 0.625000 0
0.437500 0.625000 0
0.437500 0.687500 0
0.375000 0.687500 0
0.375000 0.687500 0
0.437500 0.687500 0
0.437500 0.750000 0
0.375000 0.750000 0
0.375000 0.750000 0
0.437500 0.750000 0
0.437500 0.812500 0
0.375000 0.812500 0
0.375000 0.812500 0
0.437500 0.812500 0
0.437500 0.875000 0
0.375000 0.875000 0
0.375000 0.875000 0
0.437500 0.875000 0
0.437500 0.937500 0
0.375000 0.937500 0
0.375000 0.937500 0
0.437500 0.937500 0
0.437500 1.000000 0
0.375000 1.000000 0
0.437500 0.000000 0
0.500000 0.000000 0
0.500000 0.062500 0
0.437500 0.062500 0
0.437500 0.062500 0
0.500000 0.062500 0
0.500000 0.125000 0
0.437500 0.125000 0
0.437500 0.125000 0
0.500000 0.125000 0
0.500000 0.187500 0
0.437500 0.187500 0
0.437500 0.187500 0
0.500000 0.187500 0
0.500000 0.250000 0
0.437500 0.250000 0
0.437500 0.250000 0
0.500000 0.250000 0
0.500000 0.312500 0
0.437500 0.312500 0
0.437500 0.312500 0
0.500000 0.312500 0
0.500000 0.375000 0
0.437500 0.375000 0
0.437500 0.375000 0
0.500000 0.375000 0
0.500000 0.437500 0
0.437500 0.437500 0
0.437500 0.437500 0
0.500000 0.437500 0
0.500000 0.500000 0
0.437500 0.500000 0
0.437500 0.500000 0
0.500000 0.500000 0
0.500000 0.562500 0
0.437500 0.562500 0
0.437500 0.562500 0
0.500000 0.562500 0
0.500000 0.625000 0
0.437500 0.625000 0
0.437500 0.625000 0
0.500000 0.625000 0
0.500000 0.687500 0
0.437500 0.687500 0
0.437500 0.687500 0
0.500000 0.687500 0
0.500000 0.750000 0
[...]
POINT_DATA 10240
VECTORS vel FLOAT
-8.780796e-04 8.298576e-04 0.000000e+00
4.599107e-04 -5.904753e-05 0.000000e+00
2.368789e-01 -2.511396e-03 0.000000e+00
2.345048e-01 -5.751277e-04 0.000000e+00
2.345048e-01 -5.751277e-04 0.000000e+00
2.368789e-01 -2.511396e-03 0.000000e+00
4.393086e-01 -4.705245e-03 0.000000e+00
4.376368e-01 -1.036512e-03 0.000000e+00
4.376368e-01 -1.036512e-03 0.000000e+00
4.393086e-01 -4.705245e-03 0.000000e+00
6.100088e-01 -6.055561e-03 0.000000e+00
6.094530e-01 -1.163632e-03 0.000000e+00
6.094530e-01 -1.163632e-03 0.000000e+00
6.100088e-01 -6.055561e-03 0.000000e+00
7.495986e-01 -6.371117e-03 0.000000e+00
7.499927e-01 -1.111002e-03 0.000000e+00
7.499927e-01 -1.111002e-03 0.000000e+00
7.495986e-01 -6.371117e-03 0.000000e+00
8.581431e-01 -5.630679e-03 0.000000e+00
8.592864e-01 -9.247646e-04 0.000000e+00
8.592864e-01 -9.247646e-04 0.000000e+00
8.581431e-01 -5.630679e-03 0.000000e+00
9.357101e-01 -4.155846e-03 0.000000e+00
9.373830e-01 -6.625908e-04 0.000000e+00
9.373830e-01 -6.625908e-04 0.000000e+00
9.357101e-01 -4.155846e-03 0.000000e+00
9.822388e-01 -2.195547e-03 0.000000e+00
9.842562e-01 -3.445951e-04 0.000000e+00
9.842562e-01 -3.445951e-04 0.000000e+00
9.822388e-01 -2.195547e-03 0.000000e+00
9.977453e-01 1.067201e-05 0.000000e+00
9.998807e-01 1.483392e-06 0.000000e+00
9.998807e-01 1.483392e-06 0.000000e+00
9.977453e-01 1.067201e-05 0.000000e+00
9.822365e-01 2.217328e-03 0.000000e+00
9.842562e-01 3.476666e-04 0.000000e+00
9.842562e-01 3.476666e-04 0.000000e+00
9.822365e-01 2.217328e-03 0.000000e+00
9.357059e-01 4.178962e-03 0.000000e+00
9.373828e-01 6.659701e-04 0.000000e+00
9.373828e-01 6.659701e-04 0.000000e+00
9.357059e-01 4.178962e-03 0.000000e+00
8.581372e-01 5.656236e-03 0.000000e+00
8.592857e-01 9.287171e-04 0.000000e+00
8.592857e-01 9.287171e-04 0.000000e+00
8.581372e-01 5.656236e-03 0.000000e+00
7.495925e-01 6.399949e-03 0.000000e+00
7.499938e-01 1.116186e-03 0.000000e+00
7.499938e-01 1.116186e-03 0.000000e+00
7.495925e-01 6.399949e-03 0.000000e+00
6.100031e-01 6.085393e-03 0.000000e+00
6.094520e-01 1.171005e-03 0.000000e+00
6.094520e-01 1.171005e-03 0.000000e+00
6.100031e-01 6.085393e-03 0.000000e+00
4.393118e-01 4.733317e-03 0.000000e+00
4.376364e-01 1.045593e-03 0.000000e+00
4.376364e-01 1.045593e-03 0.000000e+00
4.393118e-01 4.733317e-03 0.000000e+00
2.368959e-01 2.530796e-03 0.000000e+00
2.345052e-01 5.819142e-04 0.000000e+00
2.345052e-01 5.819142e-04 0.000000e+00
2.368959e-01 2.530796e-03 0.000000e+00
4.673475e-04 5.986914e-05 0.000000e+00
-8.822228e-04 -8.344879e-04 0.000000e+00
4.599107e-04 -5.904753e-05 0.000000e+00
8.922570e-04 -4.671571e-05 0.000000e+00
2.391267e-01 -1.897571e-03 0.000000e+00
2.368789e-01 -2.511396e-03 0.000000e+00
2.368789e-01 -2.511396e-03 0.000000e+00
2.391267e-01 -1.897571e-03 0.000000e+00
4.413971e-01 -4.100812e-03 0.000000e+00
4.393086e-01 -4.705245e-03 0.000000e+00
4.393086e-01 -4.705245e-03 0.000000e+00
4.413971e-01 -4.100812e-03 0.000000e+00
6.110244e-01 -5.667313e-03 0.000000e+00
6.100088e-01 -6.055561e-03 0.000000e+00
6.100088e-01 -6.055561e-03 0.000000e+00
6.110244e-01 -5.667313e-03 0.000000e+00
7.494056e-01 -6.194048e-03 0.000000e+00
7.495986e-01 -6.371117e-03 0.000000e+00
7.495986e-01 -6.371117e-03 0.000000e+00
7.494056e-01 -6.194048e-03 0.000000e+00
8.569825e-01 -5.640858e-03 0.000000e+00
8.581431e-01 -5.630679e-03 0.000000e+00
8.581431e-01 -5.630679e-03 0.000000e+00
8.569825e-01 -5.640858e-03 0.000000e+00
9.338649e-01 -4.227808e-03 0.000000e+00
9.357101e-01 -4.155846e-03 0.000000e+00
9.357101e-01 -4.155846e-03 0.000000e+00
9.338649e-01 -4.227808e-03 0.000000e+00
9.799858e-01 -2.232269e-03 0.000000e+00
9.822388e-01 -2.195547e-03 0.000000e+00
9.822388e-01 -2.195547e-03 0.000000e+00
9.799858e-01 -2.232269e-03 0.000000e+00
9.953562e-01 5.034055e-05 0.000000e+00
9.977453e-01 1.067201e-05 0.000000e+00
9.977453e-01 1.067201e-05 0.000000e+00
9.953562e-01 5.034055e-05 0.000000e+00
9.799846e-01 2.328786e-03 0.000000e+00
9.822365e-01 2.217328e-03 0.000000e+00
9.822365e-01 2.217328e-03 0.000000e+00
9.799846e-01 2.328786e-03 0.000000e+00
9.338625e-01 4.311721e-03 0.000000e+00
9.357059e-01 4.178962e-03 0.000000e+00
9.357059e-01 4.178962e-03 0.000000e+00
9.338625e-01 4.311721e-03 0.000000e+00
8.569785e-01 5.703164e-03 0.000000e+00
8.581372e-01 5.656236e-03 0.000000e+00
8.581372e-01 5.656236e-03 0.000000e+00
8.569785e-01 5.703164e-03 0.000000e+00
7.493981e-01 6.215442e-03 0.000000e+00
7.495925e-01 6.399949e-03 0.000000e+00
7.495925e-01 6.399949e-03 0.000000e+00
7.493981e-01 6.215442e-03 0.000000e+00
6.110211e-01 5.686350e-03 0.000000e+00
6.100031e-01 6.085393e-03 0.000000e+00
6.100031e-01 6.085393e-03 0.000000e+00
6.110211e-01 5.686350e-03 0.000000e+00
4.414060e-01 4.114584e-03 0.000000e+00
4.393118e-01 4.733317e-03 0.000000e+00
4.393118e-01 4.733317e-03 0.000000e+00
4.414060e-01 4.114584e-03 0.000000e+00
2.391537e-01 1.905129e-03 0.000000e+00
2.368959e-01 2.530796e-03 0.000000e+00
2.368959e-01 2.530796e-03 0.000000e+00
2.391537e-01 1.905129e-03 0.000000e+00
9.032546e-04 4.687212e-05 0.000000e+00
4.673475e-04 5.986914e-05 0.000000e+00
8.922570e-04 -4.671571e-05 0.000000e+00
1.003570e-03 4.052068e-06 0.000000e+00
2.408160e-01 -1.075492e-03 0.000000e+00
2.391267e-01 -1.897571e-03 0.000000e+00
2.391267e-01 -1.897571e-03 0.000000e+00
2.408160e-01 -1.075492e-03 0.000000e+00
4.431948e-01 -2.632564e-03 0.000000e+00
4.413971e-01 -4.100812e-03 0.000000e+00
4.413971e-01 -4.100812e-03 0.000000e+00
4.431948e-01 -2.632564e-03 0.000000e+00
6.120679e-01 -3.905935e-03 0.000000e+00
6.110244e-01 -5.667313e-03 0.000000e+00
6.110244e-01 -5.667313e-03 0.000000e+00
6.120679e-01 -3.905935e-03 0.000000e+00
7.494907e-01 -4.517537e-03 0.000000e+00
7.494056e-01 -6.194048e-03 0.000000e+00
7.494056e-01 -6.194048e-03 0.000000e+00
7.494907e-01 -4.517537e-03 0.000000e+00
8.562029e-01 -4.287495e-03 0.000000e+00
8.569825e-01 -5.640858e-03 0.000000e+00
8.569825e-01 -5.640858e-03 0.000000e+00
8.562029e-01 -4.287495e-03 0.000000e+00
9.323743e-01 -3.312920e-03 0.000000e+00
9.338649e-01 -4.227808e-03 0.000000e+00
9.338649e-01 -4.227808e-03 0.000000e+00
9.323743e-01 -3.312920e-03 0.000000e+00
9.780625e-01 -1.793264e-03 0.000000e+00
9.799858e-01 -2.232269e-03 0.000000e+00
9.799858e-01 -2.232269e-03 0.000000e+00
9.780625e-01 -1.793264e-03 0.000000e+00
9.932905e-01 5.622760e-06 0.000000e+00
9.953562e-01 5.034055e-05 0.000000e+00
9.953562e-01 5.034055e-05 0.000000e+00
9.932905e-01 5.622760e-06 0.000000e+00
9.780608e-01 1.804446e-03 0.000000e+00
9.799846e-01 2.328786e-03 0.000000e+00
9.799846e-01 2.328786e-03 0.000000e+00
9.780608e-01 1.804446e-03 0.000000e+00
9.323720e-01 3.323789e-03 0.000000e+00
9.338625e-01 4.311721e-03 0.000000e+00
9.338625e-01 4.311721e-03 0.000000e+00
9.323720e-01 3.323789e-03 0.000000e+00
8.562027e-01 4.297268e-03 0.000000e+00
8.569785e-01 5.703164e-03 0.000000e+00
8.569785e-01 5.703164e-03 0.000000e+00
8.562027e-01 4.297268e-03 0.000000e+00
7.494960e-01 4.524781e-03 0.000000e+00
7.493981e-01 6.215442e-03 0.000000e+00
7.493981e-01 6.215442e-03 0.000000e+00
7.494960e-01 4.524781e-03 0.000000e+00
6.120685e-01 3.909407e-03 0.000000e+00
6.110211e-01 5.686350e-03 0.000000e+00
6.110211e-01 5.686350e-03 0.000000e+00
6.120685e-01 3.909407e-03 0.000000e+00
4.432089e-01 2.631660e-03 0.000000e+00
4.414060e-01 4.114584e-03 0.000000e+00
4.414060e-01 4.114584e-03 0.000000e+00
4.432089e-01 2.631660e-03 0.000000e+00
2.408462e-01 1.072202e-03 0.000000e+00
2.391537e-01 1.905129e-03 0.000000e+00
2.391537e-01 1.905129e-03 0.000000e+00
2.408462e-01 1.072202e-03 0.000000e+00
1.013902e-03 -4.631526e-06 0.000000e+00
9.032546e-04 4.687212e-05 0.000000e+00
1.003570e-03 4.052068e-06 0.000000e+00
1.001759e-03 4.536971e-05 0.000000e+00
2.419331e-01 -5.688529e-04 0.000000e+00
2.408160e-01 -1.075492e-03 0.000000e+00
2.408160e-01 -1.075492e-03 0.000000e+00
2.419331e-01 -5.688529e-04 0.000000e+00
4.444814e-01 -1.615564e-03 0.000000e+00
4.431948e-01 -2.632564e-03 0.000000e+00
4.431948e-01 -2.632564e-03 0.000000e+00
4.444814e-01 -1.615564e-03 0.000000e+00
6.129584e-01 -2.534149e-03 0.000000e+00
6.120679e-01 -3.905935e-03 0.000000e+00
6.120679e-01 -3.905935e-03 0.000000e+00
6.129584e-01 -2.534149e-03 0.000000e+00
7.497099e-01 -3.066229e-03 0.000000e+00
7.494907e-01 -4.517537e-03 0.000000e+00
7.494907e-01 -4.517537e-03 0.000000e+00
7.497099e-01 -3.066229e-03 0.000000e+00
8.557316e-01 -2.987129e-03 0.000000e+00
8.562029e-01 -4.287495e-03 0.000000e+00
8.562029e-01 -4.287495e-03 0.000000e+00
8.557316e-01 -2.987129e-03 0.000000e+00
9.313385e-01 -2.353787e-03 0.000000e+00
9.323743e-01 -3.312920e-03 0.000000e+00
9.323743e-01 -3.312920e-03 0.000000e+00
9.313385e-01 -2.353787e-03 0.000000e+00
9.766498e-01 -1.293558e-03 0.000000e+00
9.780625e-01 -1.793264e-03 0.000000e+00
9.780625e-01 -1.793264e-03 0.000000e+00
9.766498e-01 -1.293558e-03 0.000000e+00
9.917484e-01 1.059212e-06 0.000000e+00
9.932905e-01 5.622760e-06 0.000000e+00
9.932905e-01 5.622760e-06 0.000000e+00
9.917484e-01 1.059212e-06 0.000000e+00
9.766539e-01 1.294935e-03 0.000000e+00
9.780608e-01 1.804446e-03 0.000000e+00
9.780608e-01 1.804446e-03 0.000000e+00
9.766539e-01 1.294935e-03 0.000000e+00
9.313467e-01 2.353165e-03 0.000000e+00
9.323720e-01 3.323789e-03 0.000000e+00
9.323720e-01 3.323789e-03 0.000000e+00
9.313467e-01 2.353165e-03 0.000000e+00
8.557442e-01 2.983793e-03 0.000000e+00
8.562027e-01 4.297268e-03 0.000000e+00
8.562027e-01 4.297268e-03 0.000000e+00
8.557442e-01 2.983793e-03 0.000000e+00
7.497240e-01 3.060062e-03 0.000000e+00
7.494960e-01 4.524781e-03 0.000000e+00
7.494960e-01 4.524781e-03 0.000000e+00
7.497240e-01 3.060062e-03 0.000000e+00
6.129633e-01 2.528403e-03 0.000000e+00
6.120685e-01 3.909407e-03 0.000000e+00
6.120685e-01 3.909407e-03 0.000000e+00
6.129633e-01 2.528403e-03 0.000000e+00
4.444982e-01 1.600825e-03 0.000000e+00
4.432089e-01 2.631660e-03 0.000000e+00
4.432089e-01 2.631660e-03 0.000000e+00
4.444982e-01 1.600825e-03 0.000000e+00
2.419620e-01 5.609356e-04 0.000000e+00
2.408462e-01 1.072202e-03 0.000000e+00
2.408462e-01 1.072202e-03 0.000000e+00
2.419620e-01 5.609356e-04 0.000000e+00
1.009985e-03 -4.629130e-05 0.000000e+00
1.013902e-03 -4.631526e-06 0.000000e+00
1.001759e-03 4.536971e-05 0.000000e+00
9.465363e-04 7.630479e-05 0.000000e+00
2.426349e-01 -3.164890e-04 0.000000e+00
2.419331e-01 -5.688529e-04 0.000000e+00
2.419331e-01 -5.688529e-04 0.000000e+00
2.426349e-01 -3.164890e-04 0.000000e+00
4.454226e-01 -1.062836e-03 0.000000e+00
4.444814e-01 -1.615564e-03 0.000000e+00
4.444814e-01 -1.615564e-03 0.000000e+00
4.454226e-01 -1.062836e-03 0.000000e+00
6.136576e-01 -1.758096e-03 0.000000e+00
6.129584e-01 -2.534149e-03 0.000000e+00
6.129584e-01 -2.534149e-03 0.000000e+00
6.136576e-01 -1.758096e-03 0.000000e+00
7.499433e-01 -2.184065e-03 0.000000e+00
7.497099e-01 -3.066229e-03 0.000000e+00
7.497099e-01 -3.066229e-03 0.000000e+00
7.499433e-01 -2.184065e-03 0.000000e+00
8.554433e-01 -2.171956e-03 0.000000e+00
8.557316e-01 -2.987129e-03 0.000000e+00
8.557316e-01 -2.987129e-03 0.000000e+00
8.554433e-01 -2.171956e-03 0.000000e+00
9.306072e-01 -1.728317e-03 0.000000e+00
9.313385e-01 -2.353787e-03 0.000000e+00
9.313385e-01 -2.353787e-03 0.000000e+00
9.306072e-01 -1.728317e-03 0.000000e+00
9.756216e-01 -9.552420e-04 0.000000e+00
9.766498e-01 -1.293558e-03 0.000000e+00
9.766498e-01 -1.293558e-03 0.000000e+00
9.756216e-01 -9.552420e-04 0.000000e+00
9.906139e-01 -1.230969e-06 0.000000e+00
9.917484e-01 1.059212e-06 0.000000e+00
9.917484e-01 1.059212e-06 0.000000e+00
9.906139e-01 -1.230969e-06 0.000000e+00
9.756262e-01 9.523192e-04 0.000000e+00
9.766539e-01 1.294935e-03 0.000000e+00
9.766539e-01 1.294935e-03 0.000000e+00
9.756262e-01 9.523192e-04 0.000000e+00
9.306161e-01 1.724211e-03 0.000000e+00
9.313467e-01 2.353165e-03 0.000000e+00
9.313467e-01 2.353165e-03 0.000000e+00
9.306161e-01 1.724211e-03 0.000000e+00
8.554562e-01 2.166192e-03 0.000000e+00
8.557442e-01 2.983793e-03 0.000000e+00
8.557442e-01 2.983793e-03 0.000000e+00
8.554562e-01 2.166192e-03 0.000000e+00
7.499570e-01 2.176481e-03 0.000000e+00
7.497240e-01 3.060062e-03 0.000000e+00
7.497240e-01 3.060062e-03 0.000000e+00
7.499570e-01 2.176481e-03 0.000000e+00
6.136659e-01 1.749110e-03 0.000000e+00
6.129633e-01 2.528403e-03 0.000000e+00
6.129633e-01 2.528403e-03 0.000000e+00
6.136659e-01 1.749110e-03 0.000000e+00
4.454400e-01 1.052312e-03 0.000000e+00
4.444982e-01 1.600825e-03 0.000000e+00
4.444982e-01 1.600825e-03 0.000000e+00
4.454400e-01 1.052312e-03 0.000000e+00
2.426598e-01 3.080963e-04 0.000000e+00
2.419620e-01 5.609356e-04 0.000000e+00
2.419620e-01 5.609356e-04 0.000000e+00
2.426598e-01 3.080963e-04 0.000000e+00
9.524254e-04 -7.727090e-05 0.000000e+00
1.009985e-03 -4.629130e-05 0.000000e+00
9.465363e-04 7.630479e-05 0.000000e+00
9.044460e-04 6.082645e-05 0.000000e+00
2.431151e-01 -2.234509e-04 0.000000e+00
2.426349e-01 -3.164890e-04 0.000000e+00
2.426349e-01 -3.164890e-04 0.000000e+00
2.431151e-01 -2.234509e-04 0.000000e+00
4.460945e-01 -7.367238e-04 0.000000e+00
4.454226e-01 -1.062836e-03 0.000000e+00
4.454226e-01 -1.062836e-03 0.000000e+00
4.460945e-01 -7.367238e-04 0.000000e+00
6.141755e-01 -1.231845e-03 0.000000e+00
6.136576e-01 -1.758096e-03 0.000000e+00
6.136576e-01 -1.758096e-03 0.000000e+00
6.141755e-01 -1.231845e-03 0.000000e+00
7.501346e-01 -1.543070e-03 0.000000e+00
7.499433e-01 -2.184065e-03 0.000000e+00
7.499433e-01 -2.184065e-03 0.000000e+00
7.501346e-01 -1.543070e-03 0.000000e+00
8.552520e-01 -1.546886e-03 0.000000e+00
8.554433e-01 -2.171956e-03 0.000000e+00
8.554433e-01 -2.171956e-03 0.000000e+00
8.552520e-01 -1.546886e-03 0.000000e+00
9.300783e-01 -1.238415e-03 0.000000e+00
9.306072e-01 -1.728317e-03 0.000000e+00
9.306072e-01 -1.728317e-03 0.000000e+00
9.300783e-01 -1.238415e-03 0.000000e+00
9.748683e-01 -6.858022e-04 0.000000e+00
9.756216e-01 -9.552420e-04 0.000000e+00
9.756216e-01 -9.552420e-04 0.000000e+00
9.748683e-01 -6.858022e-04 0.000000e+00
9.897819e-01 -2.999648e-06 0.000000e+00
9.906139e-01 -1.230969e-06 0.000000e+00
9.906139e-01 -1.230969e-06 0.000000e+00
9.897819e-01 -2.999648e-06 0.000000e+00
9.748728e-01 6.796525e-04 0.000000e+00
9.756262e-01 9.523192e-04 0.000000e+00
9.756262e-01 9.523192e-04 0.000000e+00
9.748728e-01 6.796525e-04 0.000000e+00
9.300871e-01 1.231799e-03 0.000000e+00
9.306161e-01 1.724211e-03 0.000000e+00
9.306161e-01 1.724211e-03 0.000000e+00
9.300871e-01 1.231799e-03 0.000000e+00
8.552648e-01 1.539550e-03 0.000000e+00
8.554562e-01 2.166192e-03 0.000000e+00
8.554562e-01 2.166192e-03 0.000000e+00
8.552648e-01 1.539550e-03 0.000000e+00
7.501478e-01 1.534957e-03 0.000000e+00
7.499570e-01 2.176481e-03 0.000000e+00
7.499570e-01 2.176481e-03 0.000000e+00
7.501478e-01 1.534957e-03 0.000000e+00
6.141857e-01 1.222199e-03 0.000000e+00
6.136659e-01 1.749110e-03 0.000000e+00
6.136659e-01 1.749110e-03 0.000000e+00
6.141857e-01 1.222199e-03 0.000000e+00
4.461113e-01 7.267922e-04 0.000000e+00
4.454400e-01 1.052312e-03 0.000000e+00
4.454400e-01 1.052312e-03 0.000000e+00
4.461113e-01 7.267922e-04 0.000000e+00
2.431357e-01 2.163282e-04 0.000000e+00
2.426598e-01 3.080963e-04 0.000000e+00
2.426598e-01 3.080963e-04 0.000000e+00
2.431357e-01 2.163282e-04 0.000000e+00
9.084331e-04 -6.140906e-05 0.000000e+00
9.524254e-04 -7.727090e-05 0.000000e+00
9.044460e-04 6.082645e-05 0.000000e+00
8.789036e-04 3.445811e-05 0.000000e+00
2.434431e-01 -1.671629e-04 0.000000e+00
2.431151e-01 -2.234509e-04 0.000000e+00
2.431151e-01 -2.234509e-04 0.000000e+00
2.434431e-01 -1.671629e-04 0.000000e+00
4.465509e-01 -5.047521e-04 0.000000e+00
4.460945e-01 -7.367238e-04 0.000000e+00
4.460945e-01 -7.367238e-04 0.000000e+00
4.465509e-01 -5.047521e-04 0.000000e+00
6.145375e-01 -8.425799e-04 0.000000e+00
6.141755e-01 -1.231845e-03 0.000000e+00
6.141755e-01 -1.231845e-03 0.000000e+00
6.145375e-01 -8.425799e-04 0.000000e+00
7.502752e-01 -1.058592e-03 0.000000e+00
7.501346e-01 -1.543070e-03 0.000000e+00
7.501346e-01 -1.543070e-03 0.000000e+00
7.502752e-01 -1.058592e-03 0.000000e+00
8.551256e-01 -1.064927e-03 0.000000e+00
8.552520e-01 -1.546886e-03 0.000000e+00
8.552520e-01 -1.546886e-03 0.000000e+00
8.551256e-01 -1.064927e-03 0.000000e+00
9.297131e-01 -8.567849e-04 0.000000e+00
9.300783e-01 -1.238415e-03 0.000000e+00
9.300783e-01 -1.238415e-03 0.000000e+00
9.297131e-01 -8.567849e-04 0.000000e+00
9.743418e-01 -4.769472e-04 0.000000e+00
9.748683e-01 -6.858022e-04 0.000000e+00
9.748683e-01 -6.858022e-04 0.000000e+00
9.743418e-01 -4.769472e-04 0.000000e+00
9.891999e-01 -4.205948e-06 0.000000e+00
9.897819e-01 -2.999648e-06 0.000000e+00
9.897819e-01 -2.999648e-06 0.000000e+00
9.891999e-01 -4.205948e-06 0.000000e+00
9.743461e-01 4.685322e-04 0.000000e+00
9.748728e-01 6.796525e-04 0.000000e+00
9.748728e-01 6.796525e-04 0.000000e+00
9.743461e-01 4.685322e-04 0.000000e+00
9.297214e-01 8.483676e-04 0.000000e+00
9.300871e-01 1.231799e-03 0.000000e+00
9.300871e-01 1.231799e-03 0.000000e+00
9.297214e-01 8.483676e-04 0.000000e+00
8.551376e-01 1.056514e-03 0.000000e+00
8.552648e-01 1.539550e-03 0.000000e+00
8.552648e-01 1.539550e-03 0.000000e+00
8.551376e-01 1.056514e-03 0.000000e+00
7.502873e-01 1.050309e-03 0.000000e+00
7.501478e-01 1.534957e-03 0.000000e+00
7.501478e-01 1.534957e-03 0.000000e+00
7.502873e-01 1.050309e-03 0.000000e+00
6.145484e-01 8.332780e-04 0.000000e+00
6.141857e-01 1.222199e-03 0.000000e+00
6.141857e-01 1.222199e-03 0.000000e+00
6.145484e-01 8.332780e-04 0.000000e+00
4.465662e-01 4.960697e-04 0.000000e+00
4.461113e-01 7.267922e-04 0.000000e+00
4.461113e-01 7.267922e-04 0.000000e+00
4.465662e-01 4.960697e-04 0.000000e+00
2.434596e-01 1.615392e-04 0.000000e+00
2.431357e-01 2.163282e-04 0.000000e+00
2.431357e-01 2.163282e-04 0.000000e+00
2.434596e-01 1.615392e-04 0.000000e+00
8.814643e-04 -3.468067e-05 0.000000e+00
9.084331e-04 -6.140906e-05 0.000000e+00
8.789036e-04 3.445811e-05 0.000000e+00
8.658359e-04 2.051759e-05 0.000000e+00
2.436663e-01 -1.273616e-04 0.000000e+00
2.434431e-01 -1.671629e-04 0.000000e+00
2.434431e-01 -1.671629e-04 0.000000e+00
2.436663e-01 -1.273616e-04 0.000000e+00
4.468543e-01 -3.481880e-04 0.000000e+00
4.465509e-01 -5.047521e-04 0.000000e+00
4.465509e-01 -5.047521e-04 0.000000e+00
4.468543e-01 -3.481880e-04 0.000000e+00
6.147812e-01 -5.732773e-04 0.000000e+00
6.145375e-01 -8.425799e-04 0.000000e+00
6.145375e-01 -8.425799e-04 0.000000e+00
6.147812e-01 -5.732773e-04 0.000000e+00
7.503716e-01 -7.167499e-04 0.000000e+00
7.502752e-01 -1.058592e-03 0.000000e+00
7.502752e-01 -1.058592e-03 0.000000e+00
7.503716e-01 -7.167499e-04 0.000000e+00
8.550426e-01 -7.222511e-04 0.000000e+00
8.551256e-01 -1.064927e-03 0.000000e+00
8.551256e-01 -1.064927e-03 0.000000e+00
8.550426e-01 -7.222511e-04 0.000000e+00
9.294669e-01 -5.829480e-04 0.000000e+00
9.297131e-01 -8.567849e-04 0.000000e+00
9.297131e-01 -8.567849e-04 0.000000e+00
9.294669e-01 -5.829480e-04 0.000000e+00
9.739824e-01 -3.265125e-04 0.000000e+00
9.743418e-01 -4.769472e-04 0.000000e+00
9.743418e-01 -4.769472e-04 0.000000e+00
9.739824e-01 -3.265125e-04 0.000000e+00
9.887998e-01 -4.681885e-06 0.000000e+00
9.891999e-01 -4.205948e-06 0.000000e+00
9.891999e-01 -4.205948e-06 0.000000e+00
9.887998e-01 -4.681885e-06 0.000000e+00
9.739863e-01 3.172222e-04 0.000000e+00
9.743461e-01 4.685322e-04 0.000000e+00
9.743461e-01 4.685322e-04 0.000000e+00
9.739863e-01 3.172222e-04 0.000000e+00
9.294745e-01 5.738857e-04 0.000000e+00
9.297214e-01 8.483676e-04 0.000000e+00
9.297214e-01 8.483676e-04 0.000000e+00
9.294745e-01 5.738857e-04 0.000000e+00
8.550535e-01 7.136242e-04 0.000000e+00
8.551376e-01 1.056514e-03 0.000000e+00
8.551376e-01 1.056514e-03 0.000000e+00
8.550535e-01 7.136242e-04 0.000000e+00
7.503823e-01 7.087893e-04 0.000000e+00
7.502873e-01 1.050309e-03 0.000000e+00
7.502873e-01 1.050309e-03 0.000000e+00
7.503823e-01 7.087893e-04 0.000000e+00
6.147918e-01 5.649746e-04 0.000000e+00
6.145484e-01 8.332780e-04 0.000000e+00
6.145484e-01 8.332780e-04 0.000000e+00
6.147918e-01 5.649746e-04 0.000000e+00
4.468677e-01 3.410711e-04 0.000000e+00
4.465662e-01 4.960697e-04 0.000000e+00
4.465662e-01 4.960697e-04 0.000000e+00